ITEM: TIMESTEP
101260
ITEM: NUMBER OF ATOMS
19
ITEM: BOX BOUNDS pp pp pp
-0.918237 5.28388
1.41492 16.0476
0 2
ITEM: ATOMS id type x y z 
18 2 -0.0846165 2.58488 0.01 
3 1 2.18782 1.82639 0.01 
5 1 3.82102 3.34568 0.01 
4 1 -0.759838 4.86765 0.01 
12 2 1.53612 4.12147 0.01 
19 2 3.17098 5.64665 0.01 
13 2 0.869653 6.43827 0.01 
7 1 2.53477 7.9575 0.01 
6 1 4.82088 7.21678 0.01 
9 1 1.87087 10.2774 0.01 
8 1 0.238263 8.74931 0.01 
14 2 -0.411428 11.0493 0.01 
16 2 4.16895 9.52204 0.01 
15 2 1.21746 12.5811 0.01 
17 2 5.13196 13.3664 0.01 
10 1 3.49361 11.8004 0.01 
2 1 0.589012 14.9107 0.01 
11 1 4.47706 15.6571 0.01 
1 1 2.87097 14.1345 0.01 
ITEM: TIMESTEP
101338
ITEM: NUMBER OF ATOMS
19
ITEM: BOX BOUNDS pp pp pp
-0.929181 5.29482
1.03588 16.4267
0 2
ITEM: ATOMS id type x y z 
19 2 1.42956 1.41581 0.01 
5 1 -0.401332 2.95074 0.01 
3 1 3.63099 2.17002 0.01 
12 2 1.80089 3.73233 0.01 
4 1 -0.0387833 5.25386 0.01 
13 2 2.12331 6.08446 0.01 
18 2 3.98015 4.47047 0.01 
7 1 0.247665 7.61389 0.01 
6 1 4.35213 6.74912 0.01 
8 1 0.394483 9.9235 0.01 
14 2 4.47059 9.06448 0.01 
9 1 2.6027 10.5973 0.01 
2 1 0.742582 12.1883 0.01 
15 2 4.77355 11.4042 0.01 
16 2 2.92519 12.9418 0.01 
10 1 5.11885 13.7202 0.01 
1 1 1.08419 14.4892 0.01 
17 2 -0.754401 16.0288 0.01 
11 1 3.26214 15.2634 0.01 
ITEM: TIMESTEP
101281
ITEM: NUMBER OF ATOMS
19
ITEM: BOX BOUNDS pp pp pp
-1.34646 5.7121
1.49067 15.9719
0 2
ITEM: ATOMS id type x y z 
3 1 0.203778 2.38123 0.01 
5 1 2.55937 2.43122 0.01 
18 2 4.89723 2.38054 0.01 
4 1 -1.06344 4.38302 0.01 
12 2 1.29168 4.44598 0.01 
19 2 3.63743 4.53611 0.01 
13 2 -0.0434912 6.43076 0.01 
7 1 0.666381 8.6245 0.01 
6 1 2.28145 6.56622 0.01 
2 1 -0.747728 10.69 0.01 
9 1 1.60327 10.7452 0.01 
8 1 2.96409 8.7569 0.01 
14 2 3.95844 10.823 0.01 
15 2 0.347254 12.7756 0.01 
16 2 2.69234 12.8046 0.01 
17 2 5.07598 12.7841 0.01 
1 1 -0.886184 14.8322 0.01 
10 1 1.46706 14.838 0.01 
11 1 3.81733 14.8226 0.01 
ITEM: TIMESTEP
101053
ITEM: NUMBER OF ATOMS
19
ITEM: BOX BOUNDS pp pp pp
-1.2952 5.66084
2.05776 15.4048
0 2
ITEM: ATOMS id type x y z 
5 1 2.09557 3.52811 0.01 
4 1 -0.346121 3.78469 0.01 
3 1 4.79249 2.37945 0.01 
18 2 4.24924 4.36728 0.01 
12 2 0.845556 5.80203 0.01 
19 2 3.03439 6.01828 0.01 
6 1 5.50266 6.12353 0.01 
13 2 -0.40318 8.10312 0.01 
7 1 1.87161 8.01875 0.01 
9 1 4.1961 8.07778 0.01 
8 1 0.700972 10.1396 0.01 
16 2 -0.434984 12.1518 0.01 
11 1 1.81486 12.3007 0.01 
14 2 5.31597 10.137 0.01 
15 2 2.97381 10.111 0.01 
10 1 4.04544 12.1276 0.01 
1 1 0.43309 14.617 0.01 
2 1 5.1935 13.8372 0.01 
17 2 2.8514 14.4147 0.01 
ITEM: TIMESTEP
101192
ITEM: NUMBER OF ATOMS
19
ITEM: BOX BOUNDS pp pp pp
-0.938353 5.30399
1.00185 16.4607
0 2
ITEM: ATOMS id type x y z 
19 2 1.85537 2.10376 0.01 
4 1 -0.329853 2.90233 0.01 
3 1 4.05714 1.32946 0.01 
12 2 1.50558 4.43019 0.01 
5 1 -0.687258 5.23961 0.01 
18 2 3.71758 3.65178 0.01 
6 1 3.3403 5.93812 0.01 
13 2 1.17958 6.78366 0.01 
7 1 3.18196 8.24582 0.01 
9 1 1.05967 9.10758 0.01 
8 1 5.09654 9.81102 0.01 
14 2 2.90321 10.6036 0.01 
15 2 0.688441 11.3917 0.01 
17 2 0.338087 13.7039 0.01 
10 1 4.737 12.1493 0.01 
16 2 2.53941 12.9272 0.01 
2 1 0.00449862 16.0335 0.01 
1 1 2.18295 15.2406 0.01 
11 1 4.37508 14.4693 0.01 
ITEM: TIMESTEP
101340
ITEM: NUMBER OF ATOMS
19
ITEM: BOX BOUNDS pp pp pp
-0.961372 5.32701
1.2466 16.216
0 2
ITEM: ATOMS id type x y z 
4 1 0.467653 3.25198 0.01 
3 1 4.89161 1.82142 0.01 
19 2 2.66658 2.28576 0.01 
5 1 0.0212974 5.66605 0.01 
12 2 2.24907 4.75428 0.01 
18 2 4.5103 4.02862 0.01 
13 2 1.817 7.13231 0.01 
8 1 -0.21135 8.43573 0.01 
7 1 4.09456 6.23936 0.01 
6 1 3.8089 8.26367 0.01 
14 2 1.96417 9.57017 0.01 
9 1 0.291334 11.0916 0.01 
15 2 4.37942 10.3515 0.01 
2 1 0.797499 13.4417 0.01 
16 2 2.54291 11.9986 0.01 
10 1 4.75445 12.572 0.01 
1 1 0.860548 15.8525 0.01 
11 1 2.92664 14.6253 0.01 
17 2 5.20307 14.6747 0.01 
ITEM: TIMESTEP
101135
ITEM: NUMBER OF ATOMS
19
ITEM: BOX BOUNDS pp pp pp
-0.949144 5.31478
-0.0965788 17.5591
0 2
ITEM: ATOMS id type x y z 
5 1 0.692487 1.00196 0.01 
19 2 2.9258 0.220878 0.01 
4 1 4.71197 1.77108 0.01 
18 2 0.23436 3.32337 0.01 
13 2 2.02934 4.8766 0.01 
12 2 2.47914 2.55089 0.01 
3 1 4.26288 4.10314 0.01 
6 1 -0.208014 5.64537 0.01 
7 1 1.5785 7.19205 0.01 
14 2 2.48387 9.36703 0.01 
8 1 2.02832 11.6818 0.01 
15 2 -0.205174 12.4509 0.01 
9 1 4.27395 10.9039 0.01 
16 2 1.59051 14.0075 0.01 
2 1 -0.647172 14.7751 0.01 
11 1 3.82343 13.2272 0.01 
1 1 1.1403 16.3288 0.01 
10 1 3.38064 15.5558 0.01 
17 2 5.17108 17.1031 0.01 
ITEM: TIMESTEP
101172
ITEM: NUMBER OF ATOMS
19
ITEM: BOX BOUNDS pp pp pp
-0.951043 5.31668
0.981109 16.4815
0 2
ITEM: ATOMS id type x y z 
3 1 -0.319114 2.12202 0.01 
5 1 1.88231 2.91131 0.01 
18 2 3.73925 1.37774 0.01 
12 2 0.025193 4.43867 0.01 
19 2 2.23072 5.24475 0.01 
4 1 4.07594 3.7174 0.01 
13 2 4.40431 6.068 0.01 
7 1 0.377641 6.73636 0.01 
6 1 2.52261 7.6012 0.01 
14 2 0.514519 9.06446 0.01 
8 1 2.68359 9.91668 0.01 
9 1 4.90908 10.6123 0.01 
15 2 0.84265 11.4225 0.01 
2 1 1.20922 13.7504 0.01 
11 1 5.27747 12.9578 0.01 
16 2 3.06664 12.2127 0.01 
17 2 -0.649173 15.2882 0.01 
1 1 1.54548 16.0814 0.01 
10 1 3.40802 14.5392 0.01 
ITEM: TIMESTEP
101358
ITEM: NUMBER OF ATOMS
19
ITEM: BOX BOUNDS pp pp pp
-0.964841 5.33048
1.33746 16.1251
0 2
ITEM: ATOMS id type x y z 
4 1 0.574085 2.48312 0.01 
3 1 4.52724 1.74574 0.01 
12 2 2.84821 3.28736 0.01 
5 1 1.19306 4.86387 0.01 
18 2 5.21019 4.05121 0.01 
7 1 3.54106 5.60658 0.01 
19 2 -0.472229 6.42482 0.01 
13 2 1.88076 7.18131 0.01 
6 1 4.16202 7.98261 0.01 
9 1 0.206529 8.7424 0.01 
14 2 0.875279 11.0655 0.01 
15 2 4.83081 10.3044 0.01 
8 1 2.54144 9.50334 0.01 
2 1 -0.787297 12.6405 0.01 
16 2 1.52152 13.4339 0.01 
10 1 3.16245 11.8558 0.01 
17 2 -0.118518 14.9575 0.01 
1 1 2.1985 15.7354 0.01 
11 1 3.85247 14.1899 0.01 
ITEM: TIMESTEP
101103
ITEM: NUMBER OF ATOMS
19
ITEM: BOX BOUNDS pp pp pp
-0.196405 4.56205
-1.53338 18.9959
0 2
ITEM: ATOMS id type x y z 
4 1 1.44283 -0.749506 0.01 
3 1 3.82211 -0.754528 0.01 
18 2 0.249551 1.29856 0.01 
5 1 1.44167 3.341 0.01 
19 2 2.63626 1.2998 0.01 
13 2 0.247748 5.38259 0.01 
12 2 2.63467 5.38292 0.01 
6 1 1.44111 7.43061 0.01 
7 1 3.82069 7.43628 0.01 
9 1 0.252654 9.49425 0.01 
8 1 2.63086 9.49273 0.01 
15 2 1.44304 11.5455 0.01 
10 1 0.253029 13.5977 0.01 
14 2 3.82049 11.5452 0.01 
16 2 2.63239 13.6104 0.01 
1 1 1.44209 15.6623 0.01 
11 1 3.82367 15.6626 0.01 
17 2 0.254441 17.7203 0.01 
2 1 2.63295 17.7191 0.01 
ITEM: TIMESTEP
101344
ITEM: NUMBER OF ATOMS
19
ITEM: BOX BOUNDS pp pp pp
-0.965856 5.3315
0.95878 16.5038
0 2
ITEM: ATOMS id type x y z 
18 2 1.18291 2.18712 0.01 
4 1 3.3957 1.40008 0.01 
3 1 5.27558 2.98163 0.01 
6 1 0.865056 4.53091 0.01 
12 2 4.95825 5.32519 0.01 
19 2 3.06975 3.74675 0.01 
5 1 2.74595 6.08842 0.01 
7 1 0.507423 6.87138 0.01 
13 2 4.59933 7.67193 0.01 
8 1 2.37482 8.37846 0.01 
14 2 0.213293 9.24041 0.01 
9 1 2.22809 10.7009 0.01 
15 2 0.0470714 11.5587 0.01 
2 1 1.89351 13.0603 0.01 
10 1 -0.33683 13.8622 0.01 
16 2 4.10598 12.2606 0.01 
17 2 1.53831 15.3931 0.01 
11 1 -0.675288 16.1962 0.01 
1 1 3.75877 14.6091 0.01 
ITEM: TIMESTEP
101420
ITEM: NUMBER OF ATOMS
19
ITEM: BOX BOUNDS pp pp pp
-0.127398 4.49304
-1.42294 18.8855
0 2
ITEM: ATOMS id type x y z 
18 2 0.679566 -1.19799 0.01 
3 1 1.86651 0.82399 0.01 
4 1 4.14979 0.842144 0.01 
1 1 3.06286 -1.34875 0.01 
12 2 0.69229 2.90766 0.01 
19 2 2.99832 2.91793 0.01 
6 1 1.83659 4.99196 0.01 
5 1 4.14885 4.99318 0.01 
7 1 0.675478 7.07885 0.01 
13 2 2.98094 7.07741 0.01 
8 1 1.82914 9.18342 0.01 
9 1 4.13685 9.14438 0.01 
15 2 3.02857 11.2454 0.01 
14 2 0.612748 11.2387 0.01 
10 1 1.80803 13.1271 0.01 
16 2 4.11397 13.8829 0.01 
11 1 1.79378 15.1716 0.01 
17 2 4.09367 16.5266 0.01 
2 1 1.78717 17.2003 0.01 
ITEM: TIMESTEP
101368
ITEM: NUMBER OF ATOMS
19
ITEM: BOX BOUNDS pp pp pp
-0.970198 5.33584
0.945299 16.5173
0 2
ITEM: ATOMS id type x y z 
18 2 -0.33008 2.0897 0.01 
4 1 1.87345 2.89357 0.01 
3 1 3.75471 1.32468 0.01 
5 1 -0.0219742 4.4448 0.01 
19 2 4.08263 3.67182 0.01 
12 2 2.21174 5.2349 0.01 
13 2 4.42318 6.03998 0.01 
7 1 0.359914 6.74033 0.01 
6 1 2.53981 7.59293 0.01 
14 2 0.530787 9.07273 0.01 
15 2 2.69722 9.93181 0.01 
9 1 4.94862 10.6047 0.01 
8 1 0.833279 11.4371 0.01 
16 2 1.20035 13.7806 0.01 
17 2 5.27965 12.9701 0.01 
10 1 3.05489 12.2393 0.01 
1 1 1.53954 16.125 0.01 
2 1 -0.66232 15.3148 0.01 
11 1 3.43264 14.5551 0.01 
ITEM: TIMESTEP
101369
ITEM: NUMBER OF ATOMS
19
ITEM: BOX BOUNDS pp pp pp
-0.973305 5.33895
1.29264 16.1699
0 2
ITEM: ATOMS id type x y z 
4 1 1.5153 3.22879 0.01 
3 1 -0.151926 1.70319 0.01 
19 2 3.84769 2.47072 0.01 
6 1 0.878475 5.60211 0.01 
18 2 -0.800436 4.03597 0.01 
12 2 3.16822 4.82671 0.01 
7 1 0.207574 7.96125 0.01 
13 2 2.52756 7.20157 0.01 
5 1 4.84895 6.39422 0.01 
15 2 -0.428181 10.3176 0.01 
8 1 1.84484 9.52834 0.01 
9 1 4.19901 8.7649 0.01 
14 2 3.53621 11.078 0.01 
16 2 1.20487 11.8787 0.01 
2 1 5.20451 12.6544 0.01 
17 2 2.87204 13.4319 0.01 
10 1 0.553502 14.2021 0.01 
1 1 2.18457 15.754 0.01 
11 1 4.53553 15.0219 0.01 
ITEM: TIMESTEP
101174
ITEM: NUMBER OF ATOMS
19
ITEM: BOX BOUNDS pp pp pp
-0.983029 5.34867
1.3007 16.1619
0 2
ITEM: ATOMS id type x y z 
18 2 -0.147268 2.4886 0.01 
4 1 2.19952 3.26767 0.01 
3 1 3.87584 1.71396 0.01 
5 1 0.52846 4.80284 0.01 
19 2 4.52264 4.04911 0.01 
12 2 2.84961 5.60088 0.01 
7 1 1.17628 7.17975 0.01 
13 2 5.21444 6.41238 0.01 
6 1 3.51391 7.95056 0.01 
8 1 -0.451197 8.74598 0.01 
9 1 1.89395 9.52715 0.01 
15 2 0.208049 11.0866 0.01 
14 2 4.18446 10.2902 0.01 
11 1 0.870824 13.4338 0.01 
16 2 2.54956 11.8569 0.01 
10 1 4.84237 12.6259 0.01 
2 1 -0.81033 14.9985 0.01 
1 1 1.52577 15.7891 0.01 
17 2 3.20226 14.2362 0.01 
ITEM: TIMESTEP
101083
ITEM: NUMBER OF ATOMS
19
ITEM: BOX BOUNDS pp pp pp
-1.38291 5.74855
2.10538 15.3572
0 2
ITEM: ATOMS id type x y z 
3 1 -1.0975 3.17147 0.01 
18 2 1.30761 3.16774 0.01 
4 1 3.69162 3.16765 0.01 
12 2 0.14221 5.21187 0.01 
13 2 -1.12468 7.12001 0.01 
7 1 1.47036 7.23764 0.01 
5 1 2.51693 5.24841 0.01 
19 2 4.81586 5.26489 0.01 
6 1 0.150612 8.81952 0.01 
9 1 3.75403 7.62353 0.01 
14 2 2.41704 9.73044 0.01 
15 2 5.03091 9.82552 0.01 
8 1 0.169699 10.7226 0.01 
2 1 -1.16242 12.2931 0.01 
16 2 1.42416 12.4372 0.01 
10 1 3.69772 11.9468 0.01 
1 1 0.0865632 14.371 0.01 
11 1 2.53402 14.3893 0.01 
17 2 4.82777 14.2899 0.01 
ITEM: TIMESTEP
101133
ITEM: NUMBER OF ATOMS
19
ITEM: BOX BOUNDS pp pp pp
-0.994234 5.35988
1.29866 16.1639
0 2
ITEM: ATOMS id type x y z 
18 2 -0.781264 2.50149 0.01 
4 1 1.51224 3.28362 0.01 
19 2 3.18621 1.69063 0.01 
5 1 -0.13234 4.8507 0.01 
3 1 3.86314 4.02815 0.01 
13 2 2.19686 5.61863 0.01 
12 2 0.530194 7.18071 0.01 
6 1 2.85749 7.94822 0.01 
7 1 4.53931 6.39568 0.01 
8 1 1.21813 9.52297 0.01 
15 2 -0.479524 11.083 0.01 
9 1 5.20992 8.75732 0.01 
14 2 3.51091 10.3004 0.01 
16 2 1.88557 11.8697 0.01 
2 1 0.182099 13.4087 0.01 
10 1 4.18035 12.6478 0.01 
1 1 0.862559 15.7543 0.01 
11 1 2.5436 14.2179 0.01 
17 2 4.86468 14.9962 0.01 
ITEM: TIMESTEP
101031
ITEM: NUMBER OF ATOMS
19
ITEM: BOX BOUNDS pp pp pp
-0.992808 5.35845
1.27355 16.189
0 2
ITEM: ATOMS id type x y z 
18 2 0.871159 2.45854 0.01 
19 2 4.8414 3.2442 0.01 
3 1 3.17023 1.66311 0.01 
4 1 0.192432 4.79298 0.01 
5 1 2.54803 4.05203 0.01 
6 1 4.19764 5.60695 0.01 
12 2 1.86209 6.38573 0.01 
7 1 -0.473974 7.17108 0.01 
9 1 1.21185 8.72883 0.01 
13 2 3.53499 7.93093 0.01 
14 2 0.539106 11.074 0.01 
8 1 5.18011 9.54361 0.01 
15 2 2.885 10.3286 0.01 
17 2 -0.140612 13.454 0.01 
16 2 4.53498 11.8922 0.01 
10 1 2.20613 12.6679 0.01 
2 1 -0.829856 15.8065 0.01 
1 1 1.53248 15.0353 0.01 
11 1 3.88684 14.2201 0.01 
ITEM: TIMESTEP
101127
ITEM: NUMBER OF ATOMS
19
ITEM: BOX BOUNDS pp pp pp
-0.994103 5.35974
0.896718 16.5658
0 2
ITEM: ATOMS id type x y z 
4 1 0.100045 1.35065 0.01 
19 2 1.9548 2.93907 0.01 
18 2 4.20672 2.13883 0.01 
5 1 -0.287395 3.69458 0.01 
12 2 -0.638095 6.03722 0.01 
6 1 1.60481 5.30601 0.01 
3 1 3.82989 4.49382 0.01 
13 2 1.28831 7.67642 0.01 
8 1 -0.948767 8.3808 0.01 
7 1 3.49894 6.86732 0.01 
14 2 3.22317 9.24518 0.01 
9 1 5.23784 10.7341 0.01 
17 2 0.7811 12.2819 0.01 
15 2 3.02957 11.5679 0.01 
16 2 4.90776 13.1082 0.01 
10 1 2.6492 13.8864 0.01 
2 1 0.425705 14.6474 0.01 
11 1 4.55465 15.4558 0.01 
1 1 2.33187 16.2532 0.01 
ITEM: TIMESTEP
101151
ITEM: NUMBER OF ATOMS
19
ITEM: BOX BOUNDS pp pp pp
-0.119902 4.48554
-1.66267 19.1252
0 2
ITEM: ATOMS id type x y z 
19 2 2.38496 -1.10795 0.01 
3 1 0.19522 0.280071 0.01 
18 2 2.53285 0.988621 0.01 
5 1 1.47215 2.95042 0.01 
4 1 3.86596 2.87776 0.01 
13 2 0.429877 5.03871 0.01 
12 2 2.74571 5.00286 0.01 
7 1 3.95613 7.12478 0.01 
6 1 1.66143 7.13124 0.01 
14 2 2.90257 9.23912 0.01 
8 1 0.602671 9.25828 0.01 
9 1 1.91475 11.3911 0.01 
15 2 4.20474 11.3953 0.01 
16 2 0.879496 13.4863 0.01 
10 1 3.25548 13.5906 0.01 
17 2 4.39482 16.0668 0.01 
11 1 2.0679 15.3932 0.01 
1 1 0.00993704 18.5694 0.01 
2 1 2.1974 17.444 0.01 
ITEM: TIMESTEP
101370
ITEM: NUMBER OF ATOMS
19
ITEM: BOX BOUNDS pp pp pp
-1.01248 5.37813
1.24269 16.2199
0 2
ITEM: ATOMS id type x y z 
3 1 0.120377 2.47842 0.01 
18 2 4.10443 3.25808 0.01 
11 1 2.35806 1.24834 0.01 
12 2 1.88712 3.89384 0.01 
4 1 -0.440079 4.82153 0.01 
13 2 3.71205 5.49873 0.01 
5 1 1.26277 6.26876 0.01 
6 1 3.03494 7.56504 0.01 
7 1 5.33487 7.55972 0.01 
14 2 1.07391 8.73677 0.01 
8 1 -0.633275 10.2996 0.01 
9 1 1.63256 11.1278 0.01 
16 2 3.56366 9.65479 0.01 
2 1 -0.23315 12.6881 0.01 
15 2 2.02986 13.5796 0.01 
10 1 3.86637 11.9408 0.01 
1 1 0.204841 15.0219 0.01 
19 2 4.6389 16.2171 0.01 
17 2 4.23351 14.1984 0.01 
ITEM: TIMESTEP
101153
ITEM: NUMBER OF ATOMS
19
ITEM: BOX BOUNDS pp pp pp
-1.00929 5.37493
1.23236 16.2302
0 2
ITEM: ATOMS id type x y z 
12 2 -0.454391 2.42091 0.01 
19 2 1.8535 3.22095 0.01 
4 1 3.68352 1.50301 0.01 
5 1 -0.0326675 4.80145 0.01 
13 2 2.14681 5.48633 0.01 
3 1 4.08467 3.9923 0.01 
6 1 0.326689 7.59609 0.01 
18 2 4.61067 6.35437 0.01 
7 1 2.64618 7.59015 0.01 
8 1 2.15525 9.62033 0.01 
15 2 -0.110488 10.2525 0.01 
14 2 4.55067 8.83772 0.01 
9 1 3.94267 11.2005 0.01 
10 1 1.7397 11.8102 0.01 
11 1 -0.811219 12.6179 0.01 
17 2 1.05817 13.8671 0.01 
1 1 1.51474 15.9645 0.01 
2 1 -0.911064 15.0664 0.01 
16 2 3.37382 13.8548 0.01 
ITEM: TIMESTEP
101056
ITEM: NUMBER OF ATOMS
19
ITEM: BOX BOUNDS pp pp pp
-1.00013 5.36577
-0.341709 17.8043
0 2
ITEM: ATOMS id type x y z 
3 1 0.644171 0.597849 0.01 
19 2 4.90185 1.64656 0.01 
4 1 0.582806 2.96041 0.01 
5 1 4.84574 4.02966 0.01 
12 2 0.518792 5.35443 0.01 
13 2 4.75695 6.38075 0.01 
6 1 0.374113 7.78444 0.01 
14 2 2.20227 9.38497 0.01 
7 1 4.46636 8.68348 0.01 
15 2 -0.0590422 10.1892 0.01 
10 1 1.78216 11.7577 0.01 
8 1 -0.485187 12.5574 0.01 
9 1 4.03339 10.9972 0.01 
17 2 1.34658 14.1201 0.01 
11 1 -0.921781 14.9336 0.01 
16 2 3.62008 13.3581 0.01 
2 1 0.916804 16.4512 0.01 
18 2 5.03655 17.3197 0.01 
1 1 3.18805 15.7309 0.01 
ITEM: TIMESTEP
101256
ITEM: NUMBER OF ATOMS
19
ITEM: BOX BOUNDS pp pp pp
-0.230492 4.59613
-1.70028 19.1628
0 2
ITEM: ATOMS id type x y z 
18 2 2.68531 -1.13696 0.01 
19 2 1.48394 0.9446 0.01 
4 1 0.283843 3.02439 0.01 
3 1 3.90799 0.910669 0.01 
5 1 2.7016 3.01573 0.01 
13 2 1.49609 5.10034 0.01 
12 2 3.90688 5.1017 0.01 
7 1 0.290131 7.18177 0.01 
6 1 2.70392 7.1821 0.01 
14 2 1.49823 9.26808 0.01 
8 1 3.91181 9.28514 0.01 
9 1 0.341583 11.3786 0.01 
16 2 1.50678 13.482 0.01 
15 2 2.75294 11.3811 0.01 
10 1 3.92042 13.482 0.01 
17 2 0.261326 15.5867 0.01 
11 1 2.67416 15.5828 0.01 
2 1 1.46254 17.6764 0.01 
1 1 3.89415 17.6743 0.01 
ITEM: TIMESTEP
101359
ITEM: NUMBER OF ATOMS
19
ITEM: BOX BOUNDS pp pp pp
-0.996543 5.36218
1.13195 16.3306
0 2
ITEM: ATOMS id type x y z 
4 1 0.226449 3.12347 0.01 
18 2 4.90175 1.53334 0.01 
19 2 2.52076 2.30787 0.01 
5 1 -0.460962 5.50185 0.01 
12 2 1.8868 4.73951 0.01 
3 1 4.20625 3.91636 0.01 
13 2 1.19547 7.14233 0.01 
6 1 3.53628 6.36874 0.01 
8 1 5.22753 7.92113 0.01 
14 2 0.513588 9.56892 0.01 
16 2 2.20528 11.1298 0.01 
7 1 2.84641 8.7784 0.01 
9 1 4.5378 10.3353 0.01 
15 2 -0.174532 11.9808 0.01 
17 2 1.51521 13.5479 0.01 
10 1 3.85514 12.7639 0.01 
11 1 -0.819844 14.3377 0.01 
1 1 0.836652 15.9021 0.01 
2 1 3.1943 15.1604 0.01 
ITEM: TIMESTEP
101065
ITEM: NUMBER OF ATOMS
19
ITEM: BOX BOUNDS pp pp pp
-1.02602 5.39166
1.17976 16.2828
0 2
ITEM: ATOMS id type x y z 
4 1 0.169869 3.15686 0.01 
3 1 4.87933 1.6015 0.01 
18 2 2.54659 2.38501 0.01 
12 2 1.83076 4.78527 0.01 
5 1 -0.494877 5.56773 0.01 
19 2 4.23932 3.96979 0.01 
6 1 1.15471 7.12797 0.01 
7 1 3.55476 6.34808 0.01 
13 2 5.2651 7.9397 0.01 
14 2 2.84382 8.70117 0.01 
8 1 0.535986 9.55699 0.01 
9 1 4.53564 10.2881 0.01 
16 2 2.22684 11.1519 0.01 
15 2 -0.190037 11.8972 0.01 
2 1 1.50442 13.5056 0.01 
10 1 3.92338 12.7212 0.01 
17 2 -0.844652 14.3453 0.01 
11 1 0.857172 15.9038 0.01 
1 1 3.21478 15.1054 0.01 
ITEM: TIMESTEP
101422
ITEM: NUMBER OF ATOMS
19
ITEM: BOX BOUNDS pp pp pp
-1.00275 5.36839
0.506455 16.9561
0 2
ITEM: ATOMS id type x y z 
3 1 0.722738 1.79261 0.01 
19 2 5.11381 3.10852 0.01 
18 2 5.04185 0.524774 0.01 
4 1 1.01097 4.0797 0.01 
12 2 -0.811197 5.56827 0.01 
6 1 3.3401 4.76954 0.01 
13 2 1.58576 6.40237 0.01 
7 1 -0.284393 7.86726 0.01 
5 1 3.83415 7.29229 0.01 
14 2 2.055 8.8105 0.01 
8 1 0.0436869 9.98271 0.01 
16 2 1.96095 11.2846 0.01 
9 1 4.11966 10.1342 0.01 
15 2 -0.541151 12.1364 0.01 
1 1 1.34891 13.625 0.01 
10 1 3.64626 12.8878 0.01 
17 2 -0.929526 14.5053 0.01 
2 1 0.90911 15.9708 0.01 
11 1 3.21304 15.3308 0.01 
ITEM: TIMESTEP
101140
ITEM: NUMBER OF ATOMS
19
ITEM: BOX BOUNDS pp pp pp
0.0714107 4.29423
-2.73627 20.1988
0 2
ITEM: ATOMS id type x y z 
18 2 0.206481 -2.13582 0.01 
3 1 2.40519 -0.913584 0.01 
19 2 0.38289 0.319572 0.01 
5 1 2.57651 1.50049 0.01 
4 1 0.622245 2.74205 0.01 
12 2 2.81563 3.90073 0.01 
13 2 0.865451 5.153 0.01 
7 1 3.05942 6.3148 0.01 
6 1 1.10341 7.54918 0.01 
14 2 3.30019 8.74635 0.01 
8 1 1.27428 9.944 0.01 
9 1 3.54115 11.1777 0.01 
15 2 1.51266 12.3405 0.01 
16 2 3.78528 13.5909 0.01 
10 1 1.75654 14.7524 0.01 
17 2 1.99727 17.1813 0.01 
11 1 4.02408 15.9891 0.01 
1 1 4.19621 18.391 0.01 
2 1 2.2325 19.6002 0.01 
ITEM: TIMESTEP
101368
ITEM: NUMBER OF ATOMS
19
ITEM: BOX BOUNDS pp pp pp
-0.126614 4.49225
-1.89174 19.3543
0 2
ITEM: ATOMS id type x y z 
3 1 -0.0364695 -0.994213 0.01 
18 2 2.20971 -0.841204 0.01 
19 2 3.51187 1.00247 0.01 
4 1 1.19734 1.60003 0.01 
5 1 3.45394 3.20782 0.01 
12 2 1.13721 4.13873 0.01 
6 1 3.43265 5.38835 0.01 
13 2 1.10921 6.63843 0.01 
7 1 3.41137 7.56873 0.01 
8 1 1.0484 9.17756 0.01 
14 2 3.35234 9.77381 0.01 
9 1 2.28745 11.7716 0.01 
15 2 0.0385381 11.6163 0.01 
10 1 1.05619 13.8453 0.01 
16 2 3.38248 13.8762 0.01 
11 1 -0.11223 16.0179 0.01 
1 1 2.20641 16.0034 0.01 
17 2 1.03882 18.1252 0.01 
2 1 3.3305 18.209 0.01 
ITEM: TIMESTEP
101402
ITEM: NUMBER OF ATOMS
19
ITEM: BOX BOUNDS pp pp pp
-0.235169 4.60081
-1.82616 19.2887
0 2
ITEM: ATOMS id type x y z 
18 2 0.623429 -0.821536 0.01 
3 1 3.04139 -0.802296 0.01 
4 1 1.77773 1.31231 0.01 
5 1 0.517153 3.4328 0.01 
19 2 4.19619 1.3135 0.01 
12 2 2.93415 3.44316 0.01 
13 2 1.66632 5.55948 0.01 
6 1 4.09797 5.55549 0.01 
7 1 2.86907 7.63184 0.01 
8 1 1.63787 9.70805 0.01 
14 2 4.07025 9.70221 0.01 
15 2 0.497169 11.8325 0.01 
16 2 1.76759 13.9487 0.01 
9 1 2.9155 11.8181 0.01 
10 1 4.1814 13.9543 0.01 
11 1 0.61793 16.0665 0.01 
17 2 3.03564 16.0883 0.01 
2 1 1.82737 18.1908 0.01 
1 1 4.24593 18.1898 0.01 
ITEM: TIMESTEP
101304
ITEM: NUMBER OF ATOMS
19
ITEM: BOX BOUNDS pp pp pp
-1.04872 5.41436
1.16886 16.2937
0 2
ITEM: ATOMS id type x y z 
3 1 1.5001 2.36858 0.01 
19 2 -0.831473 3.144 0.01 
2 1 3.89854 1.57555 0.01 
4 1 0.833033 4.79048 0.01 
12 2 3.20112 3.96323 0.01 
13 2 4.9191 5.56066 0.01 
7 1 0.148495 7.19102 0.01 
15 2 1.90044 8.72748 0.01 
5 1 2.55308 6.33409 0.01 
6 1 4.21796 7.91866 0.01 
14 2 -0.566884 9.54845 0.01 
10 1 1.18512 11.0849 0.01 
8 1 3.57869 10.3573 0.01 
11 1 0.500825 13.4855 0.01 
9 1 5.2437 11.9419 0.01 
16 2 2.87773 12.7152 0.01 
18 2 2.16549 15.1319 0.01 
1 1 -0.166073 15.9073 0.01 
17 2 4.59587 14.3127 0.01 
ITEM: TIMESTEP
101069
ITEM: NUMBER OF ATOMS
19
ITEM: BOX BOUNDS pp pp pp
-1.04509 5.41073
0.787414 16.6752
0 2
ITEM: ATOMS id type x y z 
4 1 -0.196455 2.77657 0.01 
19 2 2.0779 1.95775 0.01 
18 2 4.38294 1.1798 0.01 
12 2 1.6889 4.34663 0.01 
5 1 -0.568355 5.15996 0.01 
3 1 3.9497 3.57557 0.01 
13 2 3.65074 6.00332 0.01 
6 1 1.36621 6.71007 0.01 
7 1 -0.900297 7.56498 0.01 
14 2 1.1203 9.07159 0.01 
8 1 5.3534 9.93065 0.01 
15 2 3.08775 10.6416 0.01 
9 1 0.853789 11.4872 0.01 
17 2 0.576294 13.9013 0.01 
16 2 5.06456 12.2959 0.01 
10 1 2.81184 13.0436 0.01 
2 1 0.200665 16.278 0.01 
11 1 4.74816 14.6718 0.01 
1 1 2.48651 15.4708 0.01 
ITEM: TIMESTEP
101227
ITEM: NUMBER OF ATOMS
19
ITEM: BOX BOUNDS pp pp pp
0.0591296 4.30651
-2.79184 20.2544
0 2
ITEM: ATOMS id type x y z 
18 2 1.51133 -2.17493 0.01 
4 1 3.5485 -0.971114 0.01 
3 1 1.27288 0.256723 0.01 
19 2 3.31268 1.44686 0.01 
5 1 1.095 2.70636 0.01 
12 2 3.13652 3.88745 0.01 
13 2 0.854194 5.13655 0.01 
7 1 2.89389 6.30463 0.01 
6 1 0.614285 7.5449 0.01 
8 1 0.442411 9.95061 0.01 
14 2 2.65174 8.74965 0.01 
15 2 0.202021 12.3567 0.01 
9 1 2.40861 11.196 0.01 
10 1 4.20253 14.7807 0.01 
16 2 2.16142 13.6217 0.01 
17 2 3.9595 17.2241 0.01 
11 1 1.9204 16.03 0.01 
1 1 1.74672 18.4446 0.01 
2 1 3.7238 19.6538 0.01 
ITEM: TIMESTEP
101590
ITEM: NUMBER OF ATOMS
19
ITEM: BOX BOUNDS pp pp pp
-1.00935 5.37499
-0.503021 17.9656
0 2
ITEM: ATOMS id type x y z 
3 1 0.014991 1.86254 0.01 
4 1 2.35112 1.1194 0.01 
18 2 4.64004 0.179503 0.01 
5 1 1.86231 3.45955 0.01 
12 2 -0.426368 4.29262 0.01 
19 2 4.14556 2.68217 0.01 
6 1 1.46348 5.76804 0.01 
13 2 -0.717903 6.82589 0.01 
7 1 1.31155 8.08713 0.01 
15 2 -0.716057 9.41051 0.01 
14 2 1.57502 10.3992 0.01 
16 2 -0.274927 11.957 0.01 
9 1 3.88181 11.0593 0.01 
8 1 2.01411 12.7259 0.01 
11 1 0.14488 14.3781 0.01 
10 1 4.29261 13.5417 0.01 
2 1 2.44512 15.0406 0.01 
17 2 4.69814 15.9973 0.01 
1 1 2.6616 17.3087 0.01 
ITEM: TIMESTEP
101163
ITEM: NUMBER OF ATOMS
19
ITEM: BOX BOUNDS pp pp pp
-0.265696 4.63134
-1.78585 19.2484
0 2
ITEM: ATOMS id type x y z 
19 2 1.67725 -0.761835 0.01 
18 2 4.12582 -0.768961 0.01 
4 1 0.460414 1.33438 0.01 
12 2 1.69829 3.44557 0.01 
3 1 2.91009 1.33408 0.01 
5 1 4.14975 3.46013 0.01 
13 2 0.412284 5.58829 0.01 
6 1 2.8752 5.56727 0.01 
7 1 1.65405 7.6518 0.01 
15 2 0.443369 9.71284 0.01 
14 2 2.92531 9.69481 0.01 
8 1 1.69633 11.7845 0.01 
16 2 0.48901 13.9006 0.01 
9 1 4.13621 11.8092 0.01 
10 1 2.93732 13.9346 0.01 
2 1 1.65244 16.0334 0.01 
17 2 4.10503 16.0641 0.01 
1 1 0.44729 18.1692 0.01 
11 1 2.89125 18.1693 0.01 
ITEM: TIMESTEP
101348
ITEM: NUMBER OF ATOMS
19
ITEM: BOX BOUNDS pp pp pp
-1.05346 5.4191
0.740123 16.7224
0 2
ITEM: ATOMS id type x y z 
4 1 0.130696 2.72642 0.01 
19 2 4.73149 1.10918 0.01 
3 1 2.47132 1.9492 0.01 
5 1 -0.253151 5.13945 0.01 
12 2 2.02134 4.31832 0.01 
18 2 4.33631 3.57033 0.01 
13 2 3.97756 6.0243 0.01 
6 1 -0.581639 7.56644 0.01 
7 1 1.68593 6.69913 0.01 
15 2 1.4503 9.0711 0.01 
9 1 -0.7799 9.93621 0.01 
14 2 3.42278 10.6467 0.01 
8 1 1.18603 11.4992 0.01 
17 2 0.914288 13.9267 0.01 
16 2 5.41029 12.3109 0.01 
10 1 3.15357 13.0591 0.01 
1 1 0.551618 16.3205 0.01 
2 1 2.82649 15.4987 0.01 
11 1 5.09997 14.6963 0.01 
ITEM: TIMESTEP
101448
ITEM: NUMBER OF ATOMS
19
ITEM: BOX BOUNDS pp pp pp
-0.250616 4.61626
-1.91528 19.3778
0 2
ITEM: ATOMS id type x y z 
4 1 0.370599 -0.876605 0.01 
19 2 2.80339 -0.910186 0.01 
18 2 1.50548 1.25819 0.01 
3 1 3.93732 1.24855 0.01 
13 2 2.80023 3.39204 0.01 
5 1 0.366269 3.4083 0.01 
7 1 1.66877 5.53756 0.01 
12 2 4.08378 5.5435 0.01 
6 1 0.411201 7.62226 0.01 
8 1 1.66653 9.70635 0.01 
14 2 4.08234 9.70396 0.01 
15 2 0.5205 11.8386 0.01 
10 1 1.6592 13.9932 0.01 
9 1 2.95322 11.8516 0.01 
16 2 4.09095 13.9906 0.01 
2 1 0.365208 16.1234 0.01 
17 2 2.79832 16.1557 0.01 
1 1 1.58169 18.2689 0.01 
11 1 4.02041 18.2701 0.01 
ITEM: TIMESTEP
101270
ITEM: NUMBER OF ATOMS
19
ITEM: BOX BOUNDS pp pp pp
-1.06237 5.42801
0.958377 16.5042
0 2
ITEM: ATOMS id type x y z 
4 1 -0.506675 2.4622 0.01 
3 1 1.9132 2.93731 0.01 
19 2 3.79675 1.32575 0.01 
12 2 0.0553822 4.674 0.01 
13 2 2.34048 5.47796 0.01 
18 2 4.12878 3.91902 0.01 
6 1 0.416983 6.96388 0.01 
5 1 4.65679 6.32744 0.01 
7 1 2.89455 7.90432 0.01 
15 2 0.873881 9.12994 0.01 
9 1 5.00721 9.26129 0.01 
14 2 2.83133 10.4074 0.01 
8 1 0.487102 11.3304 0.01 
17 2 0.107732 13.6284 0.01 
10 1 2.40745 12.8392 0.01 
16 2 4.68087 11.8736 0.01 
1 1 1.90607 15.3954 0.01 
2 1 -0.458301 15.8515 0.01 
11 1 4.21647 14.3546 0.01 
ITEM: TIMESTEP
101415
ITEM: NUMBER OF ATOMS
19
ITEM: BOX BOUNDS pp pp pp
-1.05004 5.41568
1.02655 16.436
0 2
ITEM: ATOMS id type x y z 
4 1 1.18595 3.02905 0.01 
19 2 5.27241 2.27095 0.01 
3 1 2.92001 1.47431 0.01 
5 1 1.83974 5.50276 0.01 
12 2 -0.48227 4.69103 0.01 
18 2 3.54517 3.88653 0.01 
13 2 0.175107 7.16455 0.01 
6 1 4.27288 6.30491 0.01 
7 1 2.53948 7.93319 0.01 
14 2 4.91077 8.70347 0.01 
8 1 0.804566 9.5705 0.01 
16 2 -0.904946 11.1945 0.01 
9 1 3.24241 10.352 0.01 
15 2 1.54903 11.9833 0.01 
2 1 -0.19307 13.5582 0.01 
10 1 3.86159 12.8218 0.01 
1 1 0.464491 16.0049 0.01 
11 1 2.18635 14.4241 0.01 
17 2 4.56532 15.192 0.01 
ITEM: TIMESTEP
101343
ITEM: NUMBER OF ATOMS
19
ITEM: BOX BOUNDS pp pp pp
-0.279132 4.64477
-1.84165 19.3042
0 2
ITEM: ATOMS id type x y z 
18 2 1.12285 -0.984757 0.01 
19 2 3.58653 -1.00788 0.01 
3 1 -0.117798 1.10724 0.01 
5 1 1.14155 3.18312 0.01 
4 1 2.37219 1.10259 0.01 
12 2 -0.0927929 5.24087 0.01 
13 2 2.40933 5.2268 0.01 
6 1 1.16488 7.3194 0.01 
7 1 3.61999 7.35056 0.01 
14 2 -0.0572428 9.45059 0.01 
8 1 2.39927 9.48438 0.01 
15 2 1.26335 11.6213 0.01 
16 2 -0.0468168 13.7585 0.01 
9 1 3.72866 11.6097 0.01 
10 1 2.42096 13.7642 0.01 
11 1 1.11139 15.8909 0.01 
17 2 3.57336 15.9259 0.01 
2 1 -0.105734 18.04 0.01 
1 1 2.34615 18.0411 0.01 
ITEM: TIMESTEP
101248
ITEM: NUMBER OF ATOMS
19
ITEM: BOX BOUNDS pp pp pp
-0.277627 4.64327
-1.86403 19.3266
0 2
ITEM: ATOMS id type x y z 
18 2 0.540724 -0.533381 0.01 
19 2 3.01723 -0.53847 0.01 
4 1 1.77753 1.56679 0.01 
3 1 4.23256 1.58002 0.01 
12 2 0.541626 3.69036 0.01 
13 2 1.84954 5.88811 0.01 
5 1 2.99407 3.73178 0.01 
6 1 4.31411 5.83769 0.01 
7 1 0.599307 7.9959 0.01 
8 1 3.0821 7.99671 0.01 
14 2 1.83411 10.0866 0.01 
9 1 4.29536 10.1876 0.01 
16 2 0.621517 12.2727 0.01 
15 2 3.0288 12.2628 0.01 
2 1 0.580503 16.3873 0.01 
10 1 4.27119 14.3106 0.01 
11 1 3.00231 16.3788 0.01 
1 1 1.78275 18.5555 0.01 
17 2 4.24333 18.4676 0.01 
ITEM: TIMESTEP
101190
ITEM: NUMBER OF ATOMS
19
ITEM: BOX BOUNDS pp pp pp
-1.07681 5.44245
0.704608 16.758
0 2
ITEM: ATOMS id type x y z 
3 1 1.07084 2.72387 0.01 
1 1 -0.833868 1.09913 0.01 
4 1 3.37856 1.87394 0.01 
12 2 0.74091 5.12975 0.01 
19 2 5.28077 3.50386 0.01 
5 1 3.01537 4.31351 0.01 
6 1 4.99678 5.94908 0.01 
7 1 0.451352 7.54889 0.01 
13 2 2.7169 6.71111 0.01 
14 2 0.396291 9.93954 0.01 
8 1 2.66792 9.08951 0.01 
16 2 4.56547 10.6544 0.01 
15 2 0.00427033 12.3645 0.01 
10 1 1.91765 13.9548 0.01 
9 1 2.27783 11.5128 0.01 
11 1 4.21463 13.0782 0.01 
18 2 1.46689 16.3601 0.01 
2 1 -0.398402 14.7465 0.01 
17 2 3.82715 15.5155 0.01 
ITEM: TIMESTEP
101712
ITEM: NUMBER OF ATOMS
19
ITEM: BOX BOUNDS pp pp pp
-1.06805 5.43369
-0.0992537 17.5618
0 2
ITEM: ATOMS id type x y z 
18 2 1.05104 1.64251 0.01 
3 1 5.19503 0.906341 0.01 
17 2 2.89609 0.0759544 0.01 
5 1 1.72846 3.95803 0.01 
4 1 -0.726394 3.28796 0.01 
13 2 3.96055 4.84473 0.01 
12 2 -0.0375234 5.60915 0.01 
6 1 2.19744 6.51096 0.01 
7 1 4.64068 7.15193 0.01 
8 1 2.95819 8.84116 0.01 
14 2 1.28788 10.5343 0.01 
16 2 -0.562922 12.0752 0.01 
9 1 3.64707 11.2267 0.01 
15 2 1.86746 12.9146 0.01 
11 1 0.00662852 14.4619 0.01 
10 1 4.15607 13.7016 0.01 
19 2 0.474423 16.8921 0.01 
2 1 2.3337 15.3464 0.01 
1 1 4.68269 16.105 0.01 
ITEM: TIMESTEP
101162
ITEM: NUMBER OF ATOMS
19
ITEM: BOX BOUNDS pp pp pp
-0.27667 4.64231
-1.94812 19.4107
0 2
ITEM: ATOMS id type x y z 
18 2 1.86869 -0.910071 0.01 
19 2 4.32848 -0.907341 0.01 
4 1 0.647501 1.21361 0.01 
12 2 1.88086 3.35144 0.01 
3 1 3.10348 1.21184 0.01 
5 1 4.34115 3.36433 0.01 
6 1 0.751249 5.51698 0.01 
13 2 3.22903 5.51771 0.01 
7 1 2.03803 7.61002 0.01 
14 2 0.853731 9.70112 0.01 
8 1 3.33725 9.6969 0.01 
9 1 2.01269 11.8425 0.01 
10 1 0.706141 14.022 0.01 
16 2 4.47059 11.8647 0.01 
15 2 3.15811 14.0124 0.01 
17 2 1.84841 16.1999 0.01 
11 1 4.307 16.1613 0.01 
2 1 0.630593 18.329 0.01 
1 1 3.09367 18.3283 0.01 
ITEM: TIMESTEP
101216
ITEM: NUMBER OF ATOMS
19
ITEM: BOX BOUNDS pp pp pp
-1.09867 5.46431
0.109271 17.3533
0 2
ITEM: ATOMS id type x y z 
18 2 5.32819 1.28093 0.01 
19 2 2.94448 2.24291 0.01 
4 1 0.63128 2.85104 0.01 
3 1 4.81918 3.74316 0.01 
12 2 2.4565 4.6118 0.01 
5 1 0.217839 5.25795 0.01 
7 1 -0.360901 7.32861 0.01 
13 2 1.97253 7.45717 0.01 
6 1 4.15657 6.20723 0.01 
8 1 0.122433 9.49648 0.01 
14 2 4.28052 8.64456 0.01 
15 2 0.636758 11.846 0.01 
9 1 2.41113 10.0484 0.01 
16 2 4.76634 11.0427 0.01 
11 1 5.37441 13.4438 0.01 
10 1 2.91281 12.5263 0.01 
17 2 3.40583 14.8288 0.01 
2 1 -1.04965 16.0462 0.01 
1 1 3.29596 17.1779 0.01 
ITEM: TIMESTEP
101124
ITEM: NUMBER OF ATOMS
19
ITEM: BOX BOUNDS pp pp pp
-1.13786 5.50351
0.228309 17.2343
0 2
ITEM: ATOMS id type x y z 
3 1 -0.178941 0.981442 0.01 
19 2 1.99919 2.21841 0.01 
18 2 -0.305496 3.30657 0.01 
5 1 1.6846 4.70758 0.01 
4 1 3.97267 3.738 0.01 
6 1 -0.673852 5.63537 0.01 
13 2 1.2267 7.15168 0.01 
12 2 3.66374 6.16752 0.01 
9 1 0.702125 9.5459 0.01 
7 1 -1.13104 8.05334 0.01 
8 1 3.2696 8.50533 0.01 
15 2 0.941048 11.9759 0.01 
16 2 2.79418 10.6719 0.01 
14 2 5.13336 10.6686 0.01 
2 1 1.53146 14.3068 0.01 
11 1 -0.974977 13.2443 0.01 
10 1 3.41996 12.84 0.01 
17 2 -0.432806 15.6179 0.01 
1 1 1.83837 16.7428 0.01 
ITEM: TIMESTEP
101379
ITEM: NUMBER OF ATOMS
19
ITEM: BOX BOUNDS pp pp pp
-0.282517 4.64816
-1.98065 19.4432
0 2
ITEM: ATOMS id type x y z 
19 2 1.53376 -1.10384 0.01 
3 1 4.00439 -1.13275 0.01 
18 2 0.185526 1.04915 0.01 