ITEM: TIMESTEP
100822
ITEM: NUMBER OF ATOMS
20
ITEM: BOX BOUNDS pp pp pp
0.411524 1.87329
0.862763 7.05208
0 2
ITEM: ATOMS id type x y z 
1 1 1.51219 1.07743 0.01 
2 1 0.440491 1.67964 0.01 
3 1 0.731082 2.35243 0.01 
15 2 1.16445 1.73981 0.01 
16 2 1.48276 2.31807 0.01 
8 1 0.793017 1.08353 0.01 
4 1 1.05236 2.92829 0.01 
12 2 0.69579 3.58266 0.01 
17 2 1.77644 2.987 0.01 
18 2 1.42899 3.58175 0.01 
5 1 1.43858 4.79152 0.01 
6 1 0.711917 4.79005 0.01 
19 2 1.79628 4.14747 0.01 
20 2 1.07062 4.14306 0.01 
7 1 1.08569 5.35928 0.01 
9 1 1.80769 5.34959 0.01 
10 1 0.71569 5.94098 0.01 
11 1 0.420154 6.6837 0.01 
13 2 1.46572 6.03494 0.01 
14 2 1.132 6.58081 0.01 
ITEM: TIMESTEP
100823
ITEM: NUMBER OF ATOMS
20
ITEM: BOX BOUNDS pp pp pp
0.411572 1.87325
0.862967 7.05188
0 2
ITEM: ATOMS id type x y z 
1 1 1.51216 1.07762 0.01 
2 1 0.440534 1.67979 0.01 
3 1 0.731099 2.35253 0.01 
15 2 1.16445 1.73996 0.01 
16 2 1.48273 2.31818 0.01 
8 1 0.793035 1.08372 0.01 
4 1 1.05236 2.92835 0.01 
12 2 0.695819 3.58268 0.01 
17 2 1.77639 2.98707 0.01 
18 2 1.42896 3.58177 0.01 
5 1 1.43857 4.79147 0.01 
6 1 0.711949 4.79 0.01 
19 2 1.79623 4.14746 0.01 
20 2 1.07062 4.14305 0.01 
7 1 1.08571 5.35919 0.01 
9 1 1.80766 5.3495 0.01 
10 1 0.715729 5.94084 0.01 
11 1 0.420201 6.68352 0.01 
13 2 1.46571 6.03481 0.01 
14 2 1.132 6.58064 0.01 
ITEM: TIMESTEP
100824
ITEM: NUMBER OF ATOMS
20
ITEM: BOX BOUNDS pp pp pp
0.411525 1.87329
0.862766 7.05208
0 2
ITEM: ATOMS id type x y z 
1 1 1.51215 1.07743 0.01 
2 1 0.440472 1.67964 0.01 
3 1 0.731026 2.35242 0.01 
15 2 1.16443 1.73982 0.01 
16 2 1.48271 2.31807 0.01 
8 1 0.79299 1.08354 0.01 
4 1 1.05234 2.92827 0.01 
12 2 0.695788 3.58266 0.01 
17 2 1.77642 2.98701 0.01 
18 2 1.42897 3.58174 0.01 
5 1 1.43862 4.79152 0.01 
6 1 0.711939 4.79006 0.01 
19 2 1.79626 4.14746 0.01 
20 2 1.0706 4.14307 0.01 
7 1 1.08577 5.35928 0.01 
9 1 1.80774 5.3496 0.01 
10 1 0.715756 5.94096 0.01 
11 1 0.420154 6.68371 0.01 
13 2 1.46579 6.03496 0.01 
14 2 1.13199 6.5808 0.01 
ITEM: TIMESTEP
100825
ITEM: NUMBER OF ATOMS
20
ITEM: BOX BOUNDS pp pp pp
0.411571 1.87325
0.862962 7.05188
0 2
ITEM: ATOMS id type x y z 
1 1 1.51212 1.07762 0.01 
2 1 0.440513 1.67978 0.01 
3 1 0.731044 2.35252 0.01 
15 2 1.16443 1.73996 0.01 
16 2 1.48268 2.31817 0.01 
8 1 0.793008 1.08372 0.01 
4 1 1.05234 2.92834 0.01 
12 2 0.695815 3.58268 0.01 
17 2 1.77637 2.98708 0.01 
18 2 1.42894 3.58177 0.01 
5 1 1.4386 4.79147 0.01 
6 1 0.71197 4.79001 0.01 
19 2 1.79622 4.14745 0.01 
20 2 1.0706 4.14306 0.01 
7 1 1.08579 5.35919 0.01 
9 1 1.80771 5.34951 0.01 
10 1 0.715793 5.94083 0.01 
11 1 0.4202 6.68354 0.01 
13 2 1.46578 6.03483 0.01 
14 2 1.13199 6.58063 0.01 
ITEM: TIMESTEP
100826
ITEM: NUMBER OF ATOMS
20
ITEM: BOX BOUNDS pp pp pp
0.411525 1.87329
0.862768 7.05208
0 2
ITEM: ATOMS id type x y z 
1 1 1.51211 1.07743 0.01 
2 1 0.440445 1.67964 0.01 
3 1 0.730971 2.35241 0.01 
15 2 1.16441 1.73982 0.01 
16 2 1.48266 2.31807 0.01 
8 1 0.792963 1.08354 0.01 
4 1 1.05231 2.92826 0.01 
12 2 0.695782 3.58265 0.01 
17 2 1.77639 2.98702 0.01 
18 2 1.42894 3.58174 0.01 
5 1 1.43865 4.79152 0.01 
6 1 0.711965 4.79007 0.01 
19 2 1.79625 4.14745 0.01 
20 2 1.07059 4.14308 0.01 
7 1 1.08585 5.35928 0.01 
9 1 1.8078 5.3496 0.01 
10 1 0.715825 5.94093 0.01 
11 1 0.420155 6.68373 0.01 
13 2 1.46586 6.03499 0.01 
14 2 1.13199 6.58079 0.01 
ITEM: TIMESTEP
100827
ITEM: NUMBER OF ATOMS
20
ITEM: BOX BOUNDS pp pp pp
0.41157 1.87325
0.862958 7.05188
0 2
ITEM: ATOMS id type x y z 
1 1 1.51208 1.07761 0.01 
2 1 0.440485 1.67977 0.01 
3 1 0.73099 2.35251 0.01 
15 2 1.1644 1.73995 0.01 
16 2 1.48263 2.31817 0.01 
8 1 0.792981 1.08372 0.01 
4 1 1.05231 2.92832 0.01 
12 2 0.695808 3.58268 0.01 
17 2 1.77635 2.98708 0.01 
18 2 1.42892 3.58176 0.01 
5 1 1.43864 4.79146 0.01 
6 1 0.711996 4.79002 0.01 
19 2 1.79621 4.14744 0.01 
20 2 1.07059 4.14307 0.01 
7 1 1.08586 5.35919 0.01 
9 1 1.80777 5.34952 0.01 
10 1 0.71586 5.94081 0.01 
11 1 0.4202 6.68357 0.01 
13 2 1.46585 6.03486 0.01 
14 2 1.13199 6.58063 0.01 
ITEM: TIMESTEP
100828
ITEM: NUMBER OF ATOMS
20
ITEM: BOX BOUNDS pp pp pp
0.411525 1.87329
0.862767 7.05208
0 2
ITEM: ATOMS id type x y z 
1 1 1.51207 1.07743 0.01 
2 1 0.440412 1.67963 0.01 
3 1 0.730916 2.35241 0.01 
15 2 1.16437 1.73982 0.01 
16 2 1.48261 2.31806 0.01 
8 1 0.792936 1.08354 0.01 
4 1 1.05228 2.92825 0.01 
12 2 0.695772 3.58265 0.01 
17 2 1.77637 2.98703 0.01 
18 2 1.42892 3.58174 0.01 
5 1 1.43869 4.79151 0.01 
6 1 0.711996 4.79007 0.01 
19 2 1.79624 4.14745 0.01 
20 2 1.07058 4.14308 0.01 
7 1 1.08592 5.35928 0.01 
9 1 1.80786 5.34961 0.01 
10 1 0.715896 5.94091 0.01 
11 1 0.420157 6.68376 0.01 
13 2 1.46594 6.03501 0.01 
14 2 1.13199 6.58078 0.01 
ITEM: TIMESTEP
100829
ITEM: NUMBER OF ATOMS
20
ITEM: BOX BOUNDS pp pp pp
0.411569 1.87325
0.862954 7.05189
0 2
ITEM: ATOMS id type x y z 
1 1 1.51205 1.0776 0.01 
2 1 0.440451 1.67977 0.01 
3 1 0.730935 2.35251 0.01 
15 2 1.16437 1.73995 0.01 
16 2 1.48258 2.31816 0.01 
8 1 0.792954 1.08372 0.01 
4 1 1.05228 2.92831 0.01 
12 2 0.695797 3.58267 0.01 
17 2 1.77632 2.98709 0.01 
18 2 1.4289 3.58176 0.01 
5 1 1.43867 4.79146 0.01 
6 1 0.712026 4.79002 0.01 
19 2 1.7962 4.14744 0.01 
20 2 1.07058 4.14307 0.01 
7 1 1.08594 5.3592 0.01 
9 1 1.80782 5.34953 0.01 
10 1 0.71593 5.94078 0.01 
11 1 0.420201 6.68359 0.01 
13 2 1.46592 6.03489 0.01 
14 2 1.13199 6.58062 0.01 
ITEM: TIMESTEP
100830
ITEM: NUMBER OF ATOMS
20
ITEM: BOX BOUNDS pp pp pp
0.411524 1.87329
0.862765 7.05208
0 2
ITEM: ATOMS id type x y z 
1 1 1.51204 1.07743 0.01 
2 1 0.440371 1.67963 0.01 
3 1 0.730859 2.3524 0.01 
15 2 1.16433 1.73982 0.01 
16 2 1.48255 2.31806 0.01 
8 1 0.792908 1.08355 0.01 
4 1 1.05224 2.92824 0.01 
12 2 0.695759 3.58265 0.01 
17 2 1.77633 2.98703 0.01 
18 2 1.4289 3.58173 0.01 
5 1 1.43873 4.79151 0.01 
6 1 0.712032 4.79008 0.01 
19 2 1.79624 4.14744 0.01 
20 2 1.07057 4.14309 0.01 
7 1 1.086 5.35928 0.01 
9 1 1.80792 5.34962 0.01 
10 1 0.715971 5.94088 0.01 
11 1 0.420161 6.68378 0.01 
13 2 1.46601 6.03503 0.01 
14 2 1.13198 6.58077 0.01 
ITEM: TIMESTEP
100831
ITEM: NUMBER OF ATOMS
20
ITEM: BOX BOUNDS pp pp pp
0.411568 1.87325
0.86295 7.05189
0 2
ITEM: ATOMS id type x y z 
1 1 1.51201 1.0776 0.01 
2 1 0.440409 1.67976 0.01 
3 1 0.730878 2.3525 0.01 
15 2 1.16433 1.73995 0.01 
16 2 1.48253 2.31816 0.01 
8 1 0.792927 1.08372 0.01 
4 1 1.05225 2.9283 0.01 
12 2 0.695784 3.58267 0.01 
17 2 1.77629 2.98709 0.01 
18 2 1.42888 3.58176 0.01 
5 1 1.43872 4.79146 0.01 
6 1 0.712061 4.79003 0.01 
19 2 1.7962 4.14743 0.01 
20 2 1.07057 4.14308 0.01 
7 1 1.08601 5.3592 0.01 
9 1 1.80788 5.34953 0.01 
10 1 0.716004 5.94076 0.01 
11 1 0.420205 6.68362 0.01 
13 2 1.466 6.03491 0.01 
14 2 1.13199 6.58061 0.01 
ITEM: TIMESTEP
100832
ITEM: NUMBER OF ATOMS
20
ITEM: BOX BOUNDS pp pp pp
0.411523 1.87329
0.862761 7.05208
0 2
ITEM: ATOMS id type x y z 
1 1 1.512 1.07742 0.01 
2 1 0.440321 1.67962 0.01 
3 1 0.730798 2.3524 0.01 
15 2 1.16428 1.73982 0.01 
16 2 1.4825 2.31806 0.01 
8 1 0.792879 1.08355 0.01 
4 1 1.0522 2.92823 0.01 
12 2 0.695742 3.58265 0.01 
17 2 1.77629 2.98703 0.01 
18 2 1.42888 3.58173 0.01 
5 1 1.43878 4.79151 0.01 
6 1 0.712074 4.79008 0.01 
19 2 1.79624 4.14744 0.01 
20 2 1.07057 4.14309 0.01 
7 1 1.08609 5.35928 0.01 
9 1 1.80798 5.34962 0.01 
10 1 0.716051 5.94086 0.01 
11 1 0.420166 6.68381 0.01 
13 2 1.4661 6.03506 0.01 
14 2 1.13199 6.58076 0.01 
ITEM: TIMESTEP
100833
ITEM: NUMBER OF ATOMS
20
ITEM: BOX BOUNDS pp pp pp
0.411567 1.87325
0.862945 7.0519
0 2
ITEM: ATOMS id type x y z 
1 1 1.51197 1.0776 0.01 
2 1 0.440359 1.67976 0.01 
3 1 0.730818 2.35249 0.01 
15 2 1.16428 1.73995 0.01 
16 2 1.48247 2.31816 0.01 
8 1 0.792898 1.08372 0.01 
4 1 1.0522 2.92829 0.01 
12 2 0.695767 3.58267 0.01 
17 2 1.77625 2.98709 0.01 
18 2 1.42886 3.58175 0.01 
5 1 1.43876 4.79146 0.01 
6 1 0.712103 4.79003 0.01 
19 2 1.7962 4.14743 0.01 
20 2 1.07057 4.14308 0.01 
7 1 1.08609 5.3592 0.01 
9 1 1.80795 5.34954 0.01 
10 1 0.716083 5.94074 0.01 
11 1 0.42021 6.68365 0.01 
13 2 1.46609 6.03494 0.01 
14 2 1.13199 6.5806 0.01 
ITEM: TIMESTEP
100834
ITEM: NUMBER OF ATOMS
20
ITEM: BOX BOUNDS pp pp pp
0.411522 1.8733
0.862756 7.05209
0 2
ITEM: ATOMS id type x y z 
1 1 1.51195 1.07742 0.01 
2 1 0.440259 1.67961 0.01 
3 1 0.730729 2.35239 0.01 
15 2 1.16422 1.73982 0.01 
16 2 1.48243 2.31805 0.01 
8 1 0.792848 1.08355 0.01 
4 1 1.05215 2.92822 0.01 
12 2 0.695723 3.58264 0.01 
17 2 1.77624 2.98703 0.01 
18 2 1.42885 3.58173 0.01 
5 1 1.43883 4.7915 0.01 
6 1 0.712125 4.79009 0.01 
19 2 1.79625 4.14743 0.01 
20 2 1.07057 4.14309 0.01 
7 1 1.08618 5.35929 0.01 
9 1 1.80805 5.34962 0.01 
10 1 0.71614 5.94084 0.01 
11 1 0.420173 6.68384 0.01 
13 2 1.46619 6.03509 0.01 
14 2 1.13199 6.58075 0.01 
ITEM: TIMESTEP
100835
ITEM: NUMBER OF ATOMS
20
ITEM: BOX BOUNDS pp pp pp
0.411566 1.87325
0.862941 7.0519
0 2
ITEM: ATOMS id type x y z 
1 1 1.51193 1.07759 0.01 
2 1 0.440298 1.67975 0.01 
3 1 0.730749 2.35249 0.01 
15 2 1.16422 1.73995 0.01 
16 2 1.48241 2.31815 0.01 
8 1 0.792867 1.08372 0.01 
4 1 1.05215 2.92828 0.01 
12 2 0.695749 3.58266 0.01 
17 2 1.7762 2.98709 0.01 
18 2 1.42883 3.58175 0.01 
5 1 1.43882 4.79145 0.01 
6 1 0.712154 4.79004 0.01 
19 2 1.79621 4.14742 0.01 
20 2 1.07058 4.14308 0.01 
7 1 1.08618 5.3592 0.01 
9 1 1.80802 5.34954 0.01 
10 1 0.716171 5.94072 0.01 
11 1 0.420217 6.68368 0.01 
13 2 1.46618 6.03497 0.01 
14 2 1.13199 6.58059 0.01 
ITEM: TIMESTEP
100836
ITEM: NUMBER OF ATOMS
20
ITEM: BOX BOUNDS pp pp pp
0.41152 1.8733
0.862749 7.05209
0 2
ITEM: ATOMS id type x y z 
1 1 1.5119 1.07742 0.01 
2 1 0.440181 1.67961 0.01 
3 1 0.730646 2.35239 0.01 
15 2 1.16415 1.73982 0.01 
16 2 1.48235 2.31805 0.01 
8 1 0.792811 1.08355 0.01 
4 1 1.05209 2.92821 0.01 
12 2 0.695702 3.58264 0.01 
17 2 1.77619 2.98703 0.01 
18 2 1.42883 3.58172 0.01 
5 1 1.4389 4.7915 0.01 
6 1 0.712188 4.7901 0.01 
19 2 1.79626 4.14743 0.01 
20 2 1.07058 4.14309 0.01 
7 1 1.08628 5.35929 0.01 
9 1 1.80814 5.34963 0.01 
10 1 0.716242 5.94081 0.01 
11 1 0.420183 6.68388 0.01 
13 2 1.4663 6.03512 0.01 
14 2 1.13199 6.58074 0.01 
ITEM: TIMESTEP
100837
ITEM: NUMBER OF ATOMS
20
ITEM: BOX BOUNDS pp pp pp
0.411565 1.87325
0.862936 7.05191
0 2
ITEM: ATOMS id type x y z 
1 1 1.51188 1.07759 0.01 
2 1 0.440221 1.67974 0.01 
3 1 0.730667 2.35248 0.01 
15 2 1.16414 1.73996 0.01 
16 2 1.48233 2.31815 0.01 
8 1 0.792831 1.08372 0.01 
4 1 1.05209 2.92828 0.01 
12 2 0.695728 3.58266 0.01 
17 2 1.77614 2.98709 0.01 
18 2 1.42881 3.58175 0.01 
5 1 1.43889 4.79145 0.01 
6 1 0.712217 4.79004 0.01 
19 2 1.79622 4.14742 0.01 
20 2 1.07059 4.14308 0.01 
7 1 1.08629 5.3592 0.01 
9 1 1.8081 5.34954 0.01 
10 1 0.716272 5.94069 0.01 
11 1 0.420228 6.68372 0.01 
13 2 1.46629 6.03499 0.01 
14 2 1.132 6.58058 0.01 
ITEM: TIMESTEP
100838
ITEM: NUMBER OF ATOMS
20
ITEM: BOX BOUNDS pp pp pp
0.411519 1.8733
0.86274 7.0521
0 2
ITEM: ATOMS id type x y z 
1 1 1.51183 1.07741 0.01 
2 1 0.440076 1.6796 0.01 
3 1 0.730537 2.35238 0.01 
15 2 1.16404 1.73983 0.01 
16 2 1.48225 2.31805 0.01 
8 1 0.792765 1.08355 0.01 
4 1 1.05201 2.92821 0.01 
12 2 0.695678 3.58263 0.01 
17 2 1.77611 2.98703 0.01 
18 2 1.4288 3.58172 0.01 
5 1 1.43899 4.7915 0.01 
6 1 0.712273 4.7901 0.01 
19 2 1.79628 4.14742 0.01 
20 2 1.0706 4.14309 0.01 
7 1 1.08641 5.35929 0.01 
9 1 1.80825 5.34963 0.01 
10 1 0.716367 5.94078 0.01 
11 1 0.420199 6.68393 0.01 
13 2 1.46643 6.03515 0.01 
14 2 1.13201 6.58073 0.01 
ITEM: TIMESTEP
100839
ITEM: NUMBER OF ATOMS
20
ITEM: BOX BOUNDS pp pp pp
0.411564 1.87325
0.862931 7.05191
0 2
ITEM: ATOMS id type x y z 
1 1 1.51181 1.07759 0.01 
2 1 0.440116 1.67974 0.01 
3 1 0.730559 2.35248 0.01 
15 2 1.16404 1.73997 0.01 
16 2 1.48223 2.31815 0.01 
8 1 0.792785 1.08372 0.01 
4 1 1.05201 2.92827 0.01 
12 2 0.695705 3.58266 0.01 
17 2 1.77606 2.98709 0.01 
18 2 1.42879 3.58174 0.01 
5 1 1.43898 4.79144 0.01 
6 1 0.712302 4.79005 0.01 
19 2 1.79625 4.14741 0.01 
20 2 1.07061 4.14308 0.01 
7 1 1.08642 5.3592 0.01 
9 1 1.80821 5.34954 0.01 
10 1 0.716397 5.94065 0.01 
11 1 0.420244 6.68376 0.01 
13 2 1.46642 6.03503 0.01 
14 2 1.13201 6.58056 0.01 
ITEM: TIMESTEP
100840
ITEM: NUMBER OF ATOMS
20
ITEM: BOX BOUNDS pp pp pp
0.411518 1.8733
0.86274 7.0521
0 2
ITEM: ATOMS id type x y z 
1 1 1.51173 1.07742 0.01 
2 1 0.439909 1.67959 0.01 
3 1 0.730366 2.35239 0.01 
15 2 1.16387 1.73985 0.01 
16 2 1.48208 2.31805 0.01 
8 1 0.792693 1.08356 0.01 
4 1 1.05188 2.9282 0.01 
12 2 0.695652 3.58263 0.01 
17 2 1.77598 2.98703 0.01 
18 2 1.42878 3.58171 0.01 
5 1 1.43913 4.79149 0.01 
6 1 0.71241 4.7901 0.01 
19 2 1.79633 4.14742 0.01 
20 2 1.07064 4.14308 0.01 
7 1 1.08661 5.35929 0.01 
9 1 1.80841 5.34963 0.01 
10 1 0.71655 5.94072 0.01 
11 1 0.420227 6.68398 0.01 
13 2 1.46662 6.03519 0.01 
14 2 1.13203 6.5807 0.01 
ITEM: TIMESTEP
100841
ITEM: NUMBER OF ATOMS
20
ITEM: BOX BOUNDS pp pp pp
0.411562 1.87326
0.862926 7.05192
0 2
ITEM: ATOMS id type x y z 
1 1 1.51171 1.07759 0.01 
2 1 0.43995 1.67973 0.01 
3 1 0.730389 2.35248 0.01 
15 2 1.16387 1.73998 0.01 
16 2 1.48206 2.31814 0.01 
8 1 0.792714 1.08373 0.01 
4 1 1.05189 2.92826 0.01 
12 2 0.695679 3.58265 0.01 
17 2 1.77594 2.98708 0.01 
18 2 1.42876 3.58174 0.01 
5 1 1.43912 4.79144 0.01 
6 1 0.712437 4.79005 0.01 
19 2 1.79629 4.14741 0.01 
20 2 1.07065 4.14307 0.01 
7 1 1.08661 5.3592 0.01 
9 1 1.80837 5.34954 0.01 
10 1 0.716577 5.9406 0.01 
11 1 0.420271 6.68381 0.01 
13 2 1.46661 6.03507 0.01 
14 2 1.13203 6.58054 0.01 
ITEM: TIMESTEP
100842
ITEM: NUMBER OF ATOMS
20
ITEM: BOX BOUNDS pp pp pp
0.411555 1.87326
0.862893 7.05195
0 2
ITEM: ATOMS id type x y z 
1 1 1.51154 1.07757 0.01 
2 1 0.439646 1.6797 0.01 
3 1 0.730086 2.35248 0.01 
15 2 1.16357 1.73998 0.01 
16 2 1.48177 2.31812 0.01 
8 1 0.792571 1.08372 0.01 
4 1 1.05169 2.92824 0.01 
12 2 0.695665 3.58264 0.01 
17 2 1.77575 2.98708 0.01 
18 2 1.42875 3.58172 0.01 
5 1 1.43936 4.79143 0.01 
6 1 0.712675 4.79006 0.01 
19 2 1.79641 4.1474 0.01 
20 2 1.07075 4.14307 0.01 
7 1 1.08693 5.35921 0.01 
9 1 1.80865 5.34955 0.01 
10 1 0.716849 5.94054 0.01 
11 1 0.420302 6.68392 0.01 
13 2 1.46689 6.03514 0.01 
14 2 1.13206 6.58053 0.01 
ITEM: TIMESTEP
100843
ITEM: NUMBER OF ATOMS
20
ITEM: BOX BOUNDS pp pp pp
0.411562 1.87326
0.862925 7.05192
0 2
ITEM: ATOMS id type x y z 
1 1 1.51153 1.0776 0.01 
2 1 0.439653 1.67972 0.01 
3 1 0.73009 2.35249 0.01 
15 2 1.16357 1.74001 0.01 
16 2 1.48177 2.31814 0.01 
8 1 0.792575 1.08375 0.01 
4 1 1.05169 2.92825 0.01 
12 2 0.69567 3.58264 0.01 
17 2 1.77575 2.98709 0.01 
18 2 1.42874 3.58173 0.01 
5 1 1.43936 4.79142 0.01 
6 1 0.712679 4.79005 0.01 
19 2 1.7964 4.14739 0.01 
20 2 1.07075 4.14306 0.01 
7 1 1.08693 5.35919 0.01 
9 1 1.80865 5.34954 0.01 
10 1 0.716854 5.94052 0.01 
11 1 0.420309 6.68389 0.01 
13 2 1.46689 6.03512 0.01 
14 2 1.13206 6.5805 0.01 
ITEM: TIMESTEP
100844
ITEM: NUMBER OF ATOMS
20
ITEM: BOX BOUNDS pp pp pp
0.411566 1.87325
0.862939 7.0519
0 2
ITEM: ATOMS id type x y z 
1 1 1.51151 1.07761 0.01 
2 1 0.439647 1.67973 0.01 
3 1 0.730103 2.3525 0.01 
15 2 1.16356 1.74002 0.01 
16 2 1.48178 2.31814 0.01 
8 1 0.792557 1.08376 0.01 
4 1 1.05171 2.92826 0.01 
12 2 0.695687 3.58265 0.01 
17 2 1.77576 2.98709 0.01 
18 2 1.42876 3.58173 0.01 
5 1 1.43937 4.79142 0.01 
6 1 0.712689 4.79005 0.01 
19 2 1.79641 4.1474 0.01 
20 2 1.07077 4.14306 0.01 
7 1 1.08693 5.35919 0.01 
9 1 1.80864 5.34953 0.01 
10 1 0.716844 5.94051 0.01 
11 1 0.420291 6.68388 0.01 
13 2 1.46688 6.03512 0.01 
14 2 1.13204 6.58049 0.01 
ITEM: TIMESTEP
100845
ITEM: NUMBER OF ATOMS
20
ITEM: BOX BOUNDS pp pp pp
0.411562 1.87326
0.862926 7.05192
0 2
ITEM: ATOMS id type x y z 
1 1 1.51151 1.0776 0.01 
2 1 0.439644 1.67972 0.01 
3 1 0.730101 2.3525 0.01 
15 2 1.16356 1.74001 0.01 
16 2 1.48178 2.31813 0.01 
8 1 0.792555 1.08375 0.01 
4 1 1.05171 2.92825 0.01 
12 2 0.695685 3.58264 0.01 
17 2 1.77576 2.98708 0.01 
18 2 1.42876 3.58173 0.01 
5 1 1.43937 4.79142 0.01 
6 1 0.712688 4.79006 0.01 
19 2 1.79641 4.1474 0.01 
20 2 1.07076 4.14307 0.01 
7 1 1.08693 5.3592 0.01 
9 1 1.80865 5.34954 0.01 
10 1 0.716842 5.94052 0.01 
11 1 0.420287 6.68389 0.01 
13 2 1.46688 6.03513 0.01 
14 2 1.13204 6.5805 0.01 
ITEM: TIMESTEP
100846
ITEM: NUMBER OF ATOMS
20
ITEM: BOX BOUNDS pp pp pp
0.411564 1.87325
0.862931 7.05191
0 2
ITEM: ATOMS id type x y z 
1 1 1.51151 1.0776 0.01 
2 1 0.439645 1.67972 0.01 
3 1 0.7301 2.3525 0.01 
15 2 1.16356 1.74001 0.01 
16 2 1.48178 2.31814 0.01 
8 1 0.792554 1.08375 0.01 
4 1 1.05171 2.92826 0.01 
12 2 0.695689 3.58264 0.01 
17 2 1.77576 2.98709 0.01 
18 2 1.42876 3.58173 0.01 
5 1 1.43937 4.79142 0.01 
6 1 0.712689 4.79005 0.01 
19 2 1.79641 4.1474 0.01 
20 2 1.07077 4.14306 0.01 
7 1 1.08693 5.35919 0.01 
9 1 1.80865 5.34954 0.01 
10 1 0.716841 5.94052 0.01 
11 1 0.420286 6.68389 0.01 
13 2 1.46688 6.03512 0.01 
14 2 1.13204 6.5805 0.01 
ITEM: TIMESTEP
100611
ITEM: NUMBER OF ATOMS
20
ITEM: BOX BOUNDS pp pp pp
-0.478695 2.76351
1.6365 6.27835
0 2
ITEM: ATOMS id type x y z 
1 1 2.72543 2.01885 0.01 
2 1 0.258853 2.48007 0.01 
15 2 1.09622 1.99448 0.01 
16 2 1.87588 2.45544 0.01 
3 1 1.0309 2.97085 0.01 
4 1 1.8115 3.4257 0.01 
12 2 0.186157 3.45237 0.01 
17 2 2.65455 2.98352 0.01 
18 2 2.69437 3.87208 0.01 
5 1 1.07985 3.84787 0.01 
8 1 0.220637 6.21874 0.01 
6 1 1.84968 4.33192 0.01 
19 2 0.246766 4.33971 0.01 
20 2 1.00819 4.8294 0.01 
7 1 2.65354 4.83461 0.01 
9 1 1.8977 5.23632 0.01 
10 1 2.67066 5.74559 0.01 
11 1 0.183548 5.31367 0.01 
13 2 1.07065 5.73092 0.01 
14 2 1.83745 6.21089 0.01 
ITEM: TIMESTEP
100612
ITEM: NUMBER OF ATOMS
20
ITEM: BOX BOUNDS pp pp pp
-0.478672 2.76349
1.63653 6.27831
0 2
ITEM: ATOMS id type x y z 
1 1 2.72541 2.01887 0.01 
2 1 0.258865 2.48009 0.01 
15 2 1.09622 1.9945 0.01 
16 2 1.87587 2.45546 0.01 
3 1 1.0309 2.97086 0.01 
4 1 1.81149 3.4257 0.01 
12 2 0.186169 3.45237 0.01 
17 2 2.65453 2.98354 0.01 
18 2 2.69435 3.87208 0.01 
5 1 1.07985 3.84787 0.01 
8 1 0.22065 6.21871 0.01 
6 1 1.84967 4.33192 0.01 
19 2 0.24678 4.33971 0.01 
20 2 1.00819 4.82939 0.01 
7 1 2.65352 4.8346 0.01 
9 1 1.89769 5.2363 0.01 
10 1 2.67064 5.74557 0.01 
11 1 0.183561 5.31365 0.01 
13 2 1.07065 5.7309 0.01 
14 2 1.83744 6.21086 0.01 
ITEM: TIMESTEP
100613
ITEM: NUMBER OF ATOMS
20
ITEM: BOX BOUNDS pp pp pp
-0.478692 2.76351
1.6365 6.27834
0 2
ITEM: ATOMS id type x y z 
1 1 2.72543 2.01885 0.01 
2 1 0.258854 2.48008 0.01 
15 2 1.09622 1.99448 0.01 
16 2 1.87588 2.45544 0.01 
3 1 1.03089 2.97085 0.01 
4 1 1.81149 3.42569 0.01 
12 2 0.186145 3.45237 0.01 
17 2 2.65454 2.98352 0.01 
18 2 2.69436 3.87208 0.01 
5 1 1.07985 3.84787 0.01 
8 1 0.220646 6.21874 0.01 
6 1 1.84967 4.33192 0.01 
19 2 0.246779 4.33972 0.01 
20 2 1.00819 4.82941 0.01 
7 1 2.65355 4.8346 0.01 
9 1 1.89771 5.23632 0.01 
10 1 2.67066 5.7456 0.01 
11 1 0.183544 5.31367 0.01 
13 2 1.07066 5.73092 0.01 
14 2 1.83745 6.21088 0.01 
ITEM: TIMESTEP
100614
ITEM: NUMBER OF ATOMS
20
ITEM: BOX BOUNDS pp pp pp
-0.478673 2.76349
1.63653 6.27831
0 2
ITEM: ATOMS id type x y z 
1 1 2.72542 2.01887 0.01 
2 1 0.258864 2.4801 0.01 
15 2 1.09622 1.99451 0.01 
16 2 1.87588 2.45546 0.01 
3 1 1.03089 2.97087 0.01 
4 1 1.81149 3.4257 0.01 
12 2 0.186156 3.45238 0.01 
17 2 2.65452 2.98353 0.01 
18 2 2.69434 3.87208 0.01 
5 1 1.07985 3.84787 0.01 
8 1 0.220658 6.21871 0.01 
6 1 1.84966 4.33192 0.01 
19 2 0.246791 4.33971 0.01 
20 2 1.0082 4.8294 0.01 
7 1 2.65353 4.83459 0.01 
9 1 1.89771 5.2363 0.01 
10 1 2.67064 5.74557 0.01 
11 1 0.183555 5.31366 0.01 
13 2 1.07066 5.7309 0.01 
14 2 1.83744 6.21086 0.01 
ITEM: TIMESTEP
100615
ITEM: NUMBER OF ATOMS
20
ITEM: BOX BOUNDS pp pp pp
-0.47869 2.76351
1.6365 6.27834
0 2
ITEM: ATOMS id type x y z 
1 1 2.72544 2.01885 0.01 
2 1 0.258854 2.48008 0.01 
15 2 1.09622 1.99449 0.01 
16 2 1.87588 2.45544 0.01 
3 1 1.03089 2.97086 0.01 
4 1 1.81149 3.42568 0.01 
12 2 0.186135 3.45238 0.01 
17 2 2.65454 2.98352 0.01 
18 2 2.69434 3.87208 0.01 
5 1 1.07985 3.84787 0.01 
8 1 0.220655 6.21873 0.01 
6 1 1.84966 4.33192 0.01 
19 2 0.246791 4.33972 0.01 
20 2 1.0082 4.82942 0.01 
7 1 2.65356 4.8346 0.01 
9 1 1.89773 5.23631 0.01 
10 1 2.67066 5.7456 0.01 
11 1 0.183541 5.31367 0.01 
13 2 1.07066 5.73092 0.01 
14 2 1.83745 6.21088 0.01 
ITEM: TIMESTEP
100616
ITEM: NUMBER OF ATOMS
20
ITEM: BOX BOUNDS pp pp pp
-0.478673 2.76349
1.63653 6.27831
0 2
ITEM: ATOMS id type x y z 
1 1 2.72542 2.01887 0.01 
2 1 0.258864 2.4801 0.01 
15 2 1.09622 1.99451 0.01 
16 2 1.87588 2.45545 0.01 
3 1 1.03089 2.97087 0.01 
4 1 1.81148 3.42569 0.01 
12 2 0.186144 3.45238 0.01 
17 2 2.65452 2.98353 0.01 
18 2 2.69433 3.87209 0.01 
5 1 1.07985 3.84787 0.01 
8 1 0.220665 6.21871 0.01 
6 1 1.84965 4.33191 0.01 
19 2 0.246801 4.33971 0.01 
20 2 1.0082 4.82941 0.01 
7 1 2.65354 4.83459 0.01 
9 1 1.89772 5.2363 0.01 
10 1 2.67064 5.74558 0.01 
11 1 0.183551 5.31366 0.01 
13 2 1.07066 5.7309 0.01 
14 2 1.83744 6.21085 0.01 
ITEM: TIMESTEP
100617
ITEM: NUMBER OF ATOMS
20
ITEM: BOX BOUNDS pp pp pp
-0.478688 2.76351
1.63651 6.27834
0 2
ITEM: ATOMS id type x y z 
1 1 2.72544 2.01884 0.01 
2 1 0.258854 2.48009 0.01 
15 2 1.09622 1.9945 0.01 
16 2 1.87588 2.45543 0.01 
3 1 1.03088 2.97086 0.01 
4 1 1.81148 3.42568 0.01 
12 2 0.186126 3.45238 0.01 
17 2 2.65453 2.98352 0.01 
18 2 2.69433 3.87208 0.01 
5 1 1.07984 3.84787 0.01 
8 1 0.220663 6.21873 0.01 
6 1 1.84965 4.33192 0.01 
19 2 0.246801 4.33972 0.01 
20 2 1.0082 4.82943 0.01 
7 1 2.65356 4.83459 0.01 
9 1 1.89774 5.23631 0.01 
10 1 2.67066 5.7456 0.01 
11 1 0.183539 5.31367 0.01 
13 2 1.07067 5.73091 0.01 
14 2 1.83744 6.21087 0.01 
ITEM: TIMESTEP
100618
ITEM: NUMBER OF ATOMS
20
ITEM: BOX BOUNDS pp pp pp
-0.478673 2.76349
1.63653 6.27832
0 2
ITEM: ATOMS id type x y z 
1 1 2.72543 2.01886 0.01 
2 1 0.258862 2.4801 0.01 
15 2 1.09622 1.99452 0.01 
16 2 1.87588 2.45545 0.01 
3 1 1.03088 2.97087 0.01 
4 1 1.81148 3.42568 0.01 
12 2 0.186134 3.45239 0.01 
17 2 2.65451 2.98353 0.01 
18 2 2.69432 3.87209 0.01 
5 1 1.07984 3.84787 0.01 
8 1 0.220672 6.21871 0.01 
6 1 1.84964 4.33191 0.01 
19 2 0.24681 4.33971 0.01 
20 2 1.0082 4.82942 0.01 
7 1 2.65355 4.83458 0.01 
9 1 1.89773 5.2363 0.01 
10 1 2.67064 5.74558 0.01 
11 1 0.183548 5.31366 0.01 
13 2 1.07067 5.7309 0.01 
14 2 1.83744 6.21085 0.01 
ITEM: TIMESTEP
100619
ITEM: NUMBER OF ATOMS
20
ITEM: BOX BOUNDS pp pp pp
-0.478686 2.7635
1.63651 6.27833
0 2
ITEM: ATOMS id type x y z 
1 1 2.72544 2.01884 0.01 
2 1 0.258854 2.48009 0.01 
15 2 1.09622 1.9945 0.01 
16 2 1.87588 2.45543 0.01 
3 1 1.03087 2.97087 0.01 
4 1 1.81148 3.42567 0.01 
12 2 0.186118 3.45239 0.01 
17 2 2.65452 2.98352 0.01 
18 2 2.69432 3.87209 0.01 
5 1 1.07984 3.84787 0.01 
8 1 0.22067 6.21873 0.01 
6 1 1.84964 4.33191 0.01 
19 2 0.246809 4.33972 0.01 
20 2 1.00821 4.82944 0.01 
7 1 2.65357 4.83458 0.01 
9 1 1.89775 5.2363 0.01 
10 1 2.67066 5.7456 0.01 
11 1 0.183538 5.31367 0.01 
13 2 1.07067 5.73091 0.01 
14 2 1.83744 6.21087 0.01 
ITEM: TIMESTEP
100620
ITEM: NUMBER OF ATOMS
20
ITEM: BOX BOUNDS pp pp pp
-0.478673 2.76349
1.63653 6.27832
0 2
ITEM: ATOMS id type x y z 
1 1 2.72543 2.01886 0.01 
2 1 0.258861 2.48011 0.01 
15 2 1.09622 1.99452 0.01 
16 2 1.87588 2.45544 0.01 
3 1 1.03087 2.97087 0.01 
4 1 1.81147 3.42567 0.01 
12 2 0.186125 3.45239 0.01 
17 2 2.65451 2.98352 0.01 
18 2 2.69431 3.87209 0.01 
5 1 1.07984 3.84787 0.01 
8 1 0.220678 6.21871 0.01 
6 1 1.84964 4.33191 0.01 
19 2 0.246817 4.33971 0.01 
20 2 1.00821 4.82943 0.01 
7 1 2.65356 4.83457 0.01 
9 1 1.89774 5.23629 0.01 
10 1 2.67064 5.74558 0.01 
11 1 0.183546 5.31366 0.01 
13 2 1.07067 5.7309 0.01 
14 2 1.83744 6.21085 0.01 
ITEM: TIMESTEP
100621
ITEM: NUMBER OF ATOMS
20
ITEM: BOX BOUNDS pp pp pp
-0.478685 2.7635
1.63651 6.27833
0 2
ITEM: ATOMS id type x y z 
1 1 2.72544 2.01884 0.01 
2 1 0.258854 2.4801 0.01 
15 2 1.09622 1.99451 0.01 
16 2 1.87588 2.45543 0.01 
3 1 1.03087 2.97087 0.01 
4 1 1.81147 3.42566 0.01 
12 2 0.18611 3.45239 0.01 
17 2 2.65452 2.98352 0.01 
18 2 2.69432 3.87209 0.01 
5 1 1.07984 3.84787 0.01 
8 1 0.220676 6.21873 0.01 
6 1 1.84964 4.33191 0.01 
19 2 0.246816 4.33972 0.01 
20 2 1.00821 4.82945 0.01 
7 1 2.65357 4.83458 0.01 
9 1 1.89776 5.2363 0.01 
10 1 2.67066 5.7456 0.01 
11 1 0.183538 5.31367 0.01 
13 2 1.07068 5.73091 0.01 
14 2 1.83744 6.21086 0.01 
ITEM: TIMESTEP
100622
ITEM: NUMBER OF ATOMS
20
ITEM: BOX BOUNDS pp pp pp
-0.478673 2.76349
1.63653 6.27832
0 2
ITEM: ATOMS id type x y z 
1 1 2.72543 2.01886 0.01 
2 1 0.25886 2.48011 0.01 
15 2 1.09622 1.99452 0.01 
16 2 1.87588 2.45544 0.01 
3 1 1.03087 2.97088 0.01 
4 1 1.81147 3.42567 0.01 
12 2 0.186117 3.45239 0.01 
17 2 2.65451 2.98352 0.01 
18 2 2.6943 3.87209 0.01 
5 1 1.07984 3.84787 0.01 
8 1 0.220684 6.21871 0.01 
6 1 1.84963 4.33191 0.01 
19 2 0.246823 4.33971 0.01 
20 2 1.00821 4.82944 0.01 
7 1 2.65356 4.83457 0.01 
9 1 1.89775 5.23629 0.01 
10 1 2.67065 5.74559 0.01 
11 1 0.183545 5.31366 0.01 
13 2 1.07068 5.7309 0.01 
14 2 1.83744 6.21085 0.01 
ITEM: TIMESTEP
100623
ITEM: NUMBER OF ATOMS
20
ITEM: BOX BOUNDS pp pp pp
-0.478684 2.7635
1.63651 6.27833
0 2
ITEM: ATOMS id type x y z 
1 1 2.72544 2.01884 0.01 
2 1 0.258853 2.4801 0.01 
15 2 1.09622 1.99451 0.01 
16 2 1.87588 2.45542 0.01 
3 1 1.03086 2.97087 0.01 
4 1 1.81147 3.42566 0.01 
12 2 0.186104 3.45239 0.01 
17 2 2.65451 2.98351 0.01 
18 2 2.69431 3.87209 0.01 
5 1 1.07984 3.84787 0.01 
8 1 0.220682 6.21873 0.01 
6 1 1.84963 4.33191 0.01 
19 2 0.246821 4.33972 0.01 
20 2 1.00821 4.82945 0.01 
7 1 2.65358 4.83457 0.01 
9 1 1.89777 5.2363 0.01 
10 1 2.67066 5.7456 0.01 
11 1 0.183538 5.31367 0.01 
13 2 1.07068 5.73091 0.01 
14 2 1.83744 6.21086 0.01 
ITEM: TIMESTEP
100624
ITEM: NUMBER OF ATOMS
20
ITEM: BOX BOUNDS pp pp pp
-0.478673 2.76349
1.63653 6.27832
0 2
ITEM: ATOMS id type x y z 
1 1 2.72543 2.01885 0.01 
2 1 0.258858 2.48011 0.01 
15 2 1.09622 1.99453 0.01 
16 2 1.87588 2.45543 0.01 
3 1 1.03086 2.97088 0.01 
4 1 1.81146 3.42566 0.01 
12 2 0.186109 3.4524 0.01 
17 2 2.6545 2.98352 0.01 
18 2 2.6943 3.87209 0.01 
5 1 1.07984 3.84787 0.01 
8 1 0.220689 6.21871 0.01 
6 1 1.84963 4.33191 0.01 
19 2 0.246828 4.33972 0.01 
20 2 1.00821 4.82945 0.01 
7 1 2.65357 4.83457 0.01 
9 1 1.89776 5.23629 0.01 
10 1 2.67065 5.74559 0.01 
11 1 0.183544 5.31367 0.01 
13 2 1.07068 5.7309 0.01 
14 2 1.83744 6.21084 0.01 
ITEM: TIMESTEP
100625
ITEM: NUMBER OF ATOMS
20
ITEM: BOX BOUNDS pp pp pp
-0.478682 2.7635
1.63651 6.27833
0 2
ITEM: ATOMS id type x y z 
1 1 2.72545 2.01884 0.01 
2 1 0.258852 2.4801 0.01 
15 2 1.09623 1.99452 0.01 
16 2 1.87588 2.45542 0.01 
3 1 1.03086 2.97087 0.01 
4 1 1.81146 3.42566 0.01 
12 2 0.186098 3.4524 0.01 
17 2 2.65451 2.98351 0.01 
18 2 2.6943 3.87209 0.01 
5 1 1.07984 3.84787 0.01 
8 1 0.220688 6.21873 0.01 
6 1 1.84963 4.33191 0.01 
19 2 0.246826 4.33972 0.01 
20 2 1.00822 4.82946 0.01 
7 1 2.65358 4.83457 0.01 
9 1 1.89777 5.23629 0.01 
10 1 2.67066 5.7456 0.01 
11 1 0.183539 5.31367 0.01 
13 2 1.07068 5.73091 0.01 
14 2 1.83744 6.21086 0.01 
ITEM: TIMESTEP
100626
ITEM: NUMBER OF ATOMS
20
ITEM: BOX BOUNDS pp pp pp
-0.478673 2.76349
1.63653 6.27832
0 2
ITEM: ATOMS id type x y z 
1 1 2.72544 2.01885 0.01 
2 1 0.258857 2.48011 0.01 
15 2 1.09623 1.99453 0.01 
16 2 1.87588 2.45543 0.01 
3 1 1.03086 2.97088 0.01 
4 1 1.81146 3.42566 0.01 
12 2 0.186103 3.4524 0.01 
17 2 2.6545 2.98352 0.01 
18 2 2.69429 3.87209 0.01 
5 1 1.07984 3.84787 0.01 
8 1 0.220693 6.21871 0.01 
6 1 1.84962 4.33191 0.01 
19 2 0.246832 4.33972 0.01 
20 2 1.00822 4.82945 0.01 
7 1 2.65357 4.83456 0.01 
9 1 1.89777 5.23629 0.01 
10 1 2.67065 5.74559 0.01 
11 1 0.183544 5.31367 0.01 
13 2 1.07068 5.7309 0.01 
14 2 1.83744 6.21084 0.01 
ITEM: TIMESTEP
100627
ITEM: NUMBER OF ATOMS
20
ITEM: BOX BOUNDS pp pp pp
-0.478681 2.7635
1.63652 6.27833
0 2
ITEM: ATOMS id type x y z 
1 1 2.72545 2.01884 0.01 
2 1 0.258851 2.48011 0.01 
15 2 1.09623 1.99452 0.01 
16 2 1.87588 2.45542 0.01 
3 1 1.03085 2.97088 0.01 
4 1 1.81146 3.42565 0.01 
12 2 0.186092 3.4524 0.01 
17 2 2.6545 2.98351 0.01 
18 2 2.69429 3.87209 0.01 
5 1 1.07983 3.84787 0.01 
8 1 0.220693 6.21873 0.01 
6 1 1.84962 4.33191 0.01 
19 2 0.24683 4.33972 0.01 
20 2 1.00822 4.82946 0.01 
7 1 2.65358 4.83456 0.01 
9 1 1.89778 5.23629 0.01 
10 1 2.67066 5.7456 0.01 
11 1 0.18354 5.31368 0.01 
13 2 1.07069 5.73091 0.01 
14 2 1.83744 6.21085 0.01 
ITEM: TIMESTEP
100628
ITEM: NUMBER OF ATOMS
20
ITEM: BOX BOUNDS pp pp pp
-0.478673 2.76349
1.63653 6.27832
0 2
ITEM: ATOMS id type x y z 
1 1 2.72544 2.01885 0.01 
2 1 0.258856 2.48012 0.01 
15 2 1.09623 1.99453 0.01 
16 2 1.87588 2.45543 0.01 
3 1 1.03085 2.97088 0.01 
4 1 1.81145 3.42566 0.01 
12 2 0.186097 3.4524 0.01 
17 2 2.6545 2.98352 0.01 
18 2 2.69428 3.87209 0.01 
5 1 1.07983 3.84787 0.01 
8 1 0.220698 6.21871 0.01 
6 1 1.84962 4.3319 0.01 
19 2 0.246835 4.33972 0.01 
20 2 1.00822 4.82946 0.01 
7 1 2.65358 4.83456 0.01 
9 1 1.89778 5.23629 0.01 
10 1 2.67065 5.74559 0.01 
11 1 0.183545 5.31367 0.01 
13 2 1.07069 5.7309 0.01 
14 2 1.83744 6.21084 0.01 
ITEM: TIMESTEP
100629
ITEM: NUMBER OF ATOMS
20
ITEM: BOX BOUNDS pp pp pp
-0.47868 2.7635
1.63652 6.27833
0 2
ITEM: ATOMS id type x y z 
1 1 2.72545 2.01884 0.01 
2 1 0.25885 2.48011 0.01 
15 2 1.09623 1.99453 0.01 
16 2 1.87588 2.45542 0.01 
3 1 1.03085 2.97088 0.01 
4 1 1.81145 3.42565 0.01 
12 2 0.186087 3.4524 0.01 
17 2 2.6545 2.98351 0.01 
18 2 2.69429 3.87208 0.01 
5 1 1.07983 3.84787 0.01 
8 1 0.220697 6.21873 0.01 
6 1 1.84962 4.33191 0.01 
19 2 0.246834 4.33972 0.01 
20 2 1.00822 4.82947 0.01 
7 1 2.65359 4.83456 0.01 
9 1 1.89779 5.23629 0.01 
10 1 2.67066 5.7456 0.01 
11 1 0.183541 5.31368 0.01 
13 2 1.07069 5.73091 0.01 
14 2 1.83744 6.21085 0.01 
ITEM: TIMESTEP
100630
ITEM: NUMBER OF ATOMS
20
ITEM: BOX BOUNDS pp pp pp
-0.478673 2.76349
1.63653 6.27832
0 2
ITEM: ATOMS id type x y z 
1 1 2.72544 2.01885 0.01 
2 1 0.258854 2.48012 0.01 
15 2 1.09623 1.99453 0.01 
16 2 1.87588 2.45542 0.01 
3 1 1.03085 2.97088 0.01 
4 1 1.81145 3.42565 0.01 
12 2 0.186091 3.4524 0.01 
17 2 2.65449 2.98352 0.01 
18 2 2.69428 3.87209 0.01 
5 1 1.07983 3.84787 0.01 
8 1 0.220701 6.21872 0.01 
6 1 1.84961 4.3319 0.01 
19 2 0.246838 4.33972 0.01 