ITEM: TIMESTEP
100868
ITEM: NUMBER OF ATOMS
20
ITEM: BOX BOUNDS pp pp pp
0.236693 2.70925
0.803944 4.29858
0 2
ITEM: ATOMS id type x y z 
1 1 2.67072 0.907439 0.01 
2 1 1.42209 0.899347 0.01 
3 1 2.06121 1.19406 0.01 
4 1 2.63958 1.56758 0.01 
5 1 0.746841 1.89107 0.01 
6 1 2.67504 2.2461 0.01 
7 1 0.794391 1.21545 0.01 
8 2 1.406 2.28742 0.01 
14 2 1.4356 1.62273 0.01 
15 2 1.98863 1.95213 0.01 
17 2 1.43387 2.9688 0.01 
18 2 2.02685 2.62286 0.01 
9 2 2.65963 3.65785 0.01 
10 2 0.80374 3.31019 0.01 
11 2 2.04505 3.29564 0.01 
12 2 1.42223 3.64765 0.01 
13 2 2.03947 3.95637 0.01 
16 2 0.831455 2.64718 0.01 
19 2 2.66067 2.98188 0.01 
20 2 0.809321 3.9607 0.01 
ITEM: TIMESTEP
100869
ITEM: NUMBER OF ATOMS
20
ITEM: BOX BOUNDS pp pp pp
0.236664 2.70928
0.803903 4.29862
0 2
ITEM: ATOMS id type x y z 
1 1 2.67075 0.907403 0.01 
2 1 1.42209 0.899315 0.01 
3 1 2.06122 1.19402 0.01 
4 1 2.6396 1.56755 0.01 
5 1 0.746832 1.89103 0.01 
6 1 2.67508 2.24609 0.01 
7 1 0.794382 1.21541 0.01 
8 2 1.406 2.28743 0.01 
14 2 1.43561 1.62271 0.01 
15 2 1.98865 1.95213 0.01 
17 2 1.43386 2.96882 0.01 
18 2 2.02687 2.62287 0.01 
9 2 2.65966 3.65787 0.01 
10 2 0.803719 3.3102 0.01 
11 2 2.04505 3.29566 0.01 
12 2 1.42222 3.64769 0.01 
13 2 2.03949 3.95641 0.01 
16 2 0.831435 2.64717 0.01 
19 2 2.66069 2.98189 0.01 
20 2 0.809303 3.96073 0.01 
ITEM: TIMESTEP
100870
ITEM: NUMBER OF ATOMS
20
ITEM: BOX BOUNDS pp pp pp
0.236692 2.70925
0.803943 4.29858
0 2
ITEM: ATOMS id type x y z 
1 1 2.67072 0.907441 0.01 
2 1 1.42209 0.899354 0.01 
3 1 2.06121 1.19405 0.01 
4 1 2.63957 1.56758 0.01 
5 1 0.74685 1.89104 0.01 
6 1 2.67505 2.2461 0.01 
7 1 0.794399 1.21544 0.01 
8 2 1.406 2.28743 0.01 
14 2 1.43562 1.62273 0.01 
15 2 1.98864 1.95214 0.01 
17 2 1.43386 2.96881 0.01 
18 2 2.02685 2.62287 0.01 
9 2 2.65963 3.65785 0.01 
10 2 0.803734 3.31018 0.01 
11 2 2.04503 3.29564 0.01 
12 2 1.42222 3.64766 0.01 
13 2 2.03948 3.95637 0.01 
16 2 0.831449 2.64716 0.01 
19 2 2.66066 2.98188 0.01 
20 2 0.809317 3.96069 0.01 
ITEM: TIMESTEP
100871
ITEM: NUMBER OF ATOMS
20
ITEM: BOX BOUNDS pp pp pp
0.236667 2.70927
0.803907 4.29861
0 2
ITEM: ATOMS id type x y z 
1 1 2.67075 0.907409 0.01 
2 1 1.4221 0.899327 0.01 
3 1 2.06122 1.19402 0.01 
4 1 2.63959 1.56756 0.01 
5 1 0.746843 1.89101 0.01 
6 1 2.67509 2.24609 0.01 
7 1 0.794392 1.21541 0.01 
8 2 1.406 2.28744 0.01 
14 2 1.43563 1.62272 0.01 
15 2 1.98865 1.95214 0.01 
17 2 1.43384 2.96882 0.01 
18 2 2.02687 2.62288 0.01 
9 2 2.65966 3.65787 0.01 
10 2 0.803714 3.31018 0.01 
11 2 2.04503 3.29566 0.01 
12 2 1.42222 3.6477 0.01 
13 2 2.0395 3.9564 0.01 
16 2 0.831432 2.64715 0.01 
19 2 2.66067 2.98188 0.01 
20 2 0.809301 3.96072 0.01 
ITEM: TIMESTEP
100872
ITEM: NUMBER OF ATOMS
20
ITEM: BOX BOUNDS pp pp pp
0.236692 2.70925
0.803942 4.29858
0 2
ITEM: ATOMS id type x y z 
1 1 2.67073 0.907442 0.01 
2 1 1.4221 0.899361 0.01 
3 1 2.06121 1.19405 0.01 
4 1 2.63956 1.56757 0.01 
5 1 0.746859 1.89102 0.01 
6 1 2.67506 2.24609 0.01 
7 1 0.794407 1.21543 0.01 
8 2 1.40601 2.28744 0.01 
14 2 1.43563 1.62274 0.01 
15 2 1.98864 1.95216 0.01 
17 2 1.43384 2.96882 0.01 
18 2 2.02685 2.62288 0.01 
9 2 2.65963 3.65784 0.01 
10 2 0.803726 3.31016 0.01 
11 2 2.04502 3.29565 0.01 
12 2 1.42222 3.64768 0.01 
13 2 2.03949 3.95637 0.01 
16 2 0.831444 2.64714 0.01 
19 2 2.66064 2.98187 0.01 
20 2 0.809313 3.96069 0.01 
ITEM: TIMESTEP
100873
ITEM: NUMBER OF ATOMS
20
ITEM: BOX BOUNDS pp pp pp
0.23667 2.70927
0.803911 4.29861
0 2
ITEM: ATOMS id type x y z 
1 1 2.67075 0.907415 0.01 
2 1 1.4221 0.899338 0.01 
3 1 2.06122 1.19403 0.01 
4 1 2.63958 1.56756 0.01 
5 1 0.746853 1.89099 0.01 
6 1 2.67509 2.24608 0.01 
7 1 0.794402 1.2154 0.01 
8 2 1.40601 2.28744 0.01 
14 2 1.43565 1.62273 0.01 
15 2 1.98866 1.95216 0.01 
17 2 1.43383 2.96883 0.01 
18 2 2.02686 2.62289 0.01 
9 2 2.65966 3.65786 0.01 
10 2 0.803708 3.31016 0.01 
11 2 2.04502 3.29567 0.01 
12 2 1.42221 3.64771 0.01 
13 2 2.0395 3.9564 0.01 
16 2 0.831429 2.64713 0.01 
19 2 2.66065 2.98188 0.01 
20 2 0.809299 3.96071 0.01 
ITEM: TIMESTEP
100874
ITEM: NUMBER OF ATOMS
20
ITEM: BOX BOUNDS pp pp pp
0.236692 2.70925
0.803942 4.29858
0 2
ITEM: ATOMS id type x y z 
1 1 2.67073 0.907443 0.01 
2 1 1.4221 0.899367 0.01 
3 1 2.06121 1.19405 0.01 
4 1 2.63956 1.56757 0.01 
5 1 0.746867 1.891 0.01 
6 1 2.67507 2.24609 0.01 
7 1 0.794415 1.21543 0.01 
8 2 1.40601 2.28745 0.01 
14 2 1.43565 1.62275 0.01 
15 2 1.98865 1.95217 0.01 
17 2 1.43383 2.96883 0.01 
18 2 2.02685 2.62289 0.01 
9 2 2.65963 3.65784 0.01 
10 2 0.803718 3.31015 0.01 
11 2 2.045 3.29566 0.01 
12 2 1.42221 3.64769 0.01 
13 2 2.03949 3.95637 0.01 
16 2 0.831439 2.64713 0.01 
19 2 2.66063 2.98187 0.01 
20 2 0.80931 3.96068 0.01 
ITEM: TIMESTEP
100875
ITEM: NUMBER OF ATOMS
20
ITEM: BOX BOUNDS pp pp pp
0.236673 2.70927
0.803915 4.29861
0 2
ITEM: ATOMS id type x y z 
1 1 2.67075 0.907419 0.01 
2 1 1.4221 0.899347 0.01 
3 1 2.06123 1.19403 0.01 
4 1 2.63958 1.56756 0.01 
5 1 0.746863 1.89098 0.01 
6 1 2.6751 2.24608 0.01 
7 1 0.794412 1.2154 0.01 
8 2 1.40601 2.28745 0.01 
14 2 1.43566 1.62274 0.01 
15 2 1.98867 1.95217 0.01 
17 2 1.43382 2.96884 0.01 
18 2 2.02686 2.6229 0.01 
9 2 2.65965 3.65785 0.01 
10 2 0.8037 3.31015 0.01 
11 2 2.045 3.29567 0.01 
12 2 1.4222 3.64772 0.01 
13 2 2.03951 3.9564 0.01 
16 2 0.831426 2.64712 0.01 
19 2 2.66064 2.98187 0.01 
20 2 0.809298 3.9607 0.01 
ITEM: TIMESTEP
100876
ITEM: NUMBER OF ATOMS
20
ITEM: BOX BOUNDS pp pp pp
0.236691 2.70925
0.803941 4.29858
0 2
ITEM: ATOMS id type x y z 
1 1 2.67074 0.907444 0.01 
2 1 1.4221 0.899372 0.01 
3 1 2.06122 1.19405 0.01 
4 1 2.63956 1.56757 0.01 
5 1 0.746875 1.89098 0.01 
6 1 2.67508 2.24608 0.01 
7 1 0.794424 1.21542 0.01 
8 2 1.40601 2.28745 0.01 
14 2 1.43566 1.62276 0.01 
15 2 1.98866 1.95218 0.01 
17 2 1.43382 2.96883 0.01 
18 2 2.02685 2.6229 0.01 
9 2 2.65963 3.65784 0.01 
10 2 0.803709 3.31014 0.01 
11 2 2.04499 3.29566 0.01 
12 2 1.4222 3.6477 0.01 
13 2 2.0395 3.95637 0.01 
16 2 0.831435 2.64712 0.01 
19 2 2.66062 2.98187 0.01 
20 2 0.809307 3.96067 0.01 
ITEM: TIMESTEP
100877
ITEM: NUMBER OF ATOMS
20
ITEM: BOX BOUNDS pp pp pp
0.236675 2.70927
0.803918 4.2986
0 2
ITEM: ATOMS id type x y z 
1 1 2.67076 0.907422 0.01 
2 1 1.4221 0.899355 0.01 
3 1 2.06123 1.19403 0.01 
4 1 2.63958 1.56756 0.01 
5 1 0.746872 1.89096 0.01 
6 1 2.6751 2.24607 0.01 
7 1 0.794423 1.2154 0.01 
8 2 1.40601 2.28746 0.01 
14 2 1.43567 1.62275 0.01 
15 2 1.98868 1.95218 0.01 
17 2 1.43381 2.96884 0.01 
18 2 2.02686 2.62291 0.01 
9 2 2.65965 3.65785 0.01 
10 2 0.803692 3.31014 0.01 
11 2 2.04498 3.29568 0.01 
12 2 1.42219 3.64772 0.01 
13 2 2.03951 3.9564 0.01 
16 2 0.831424 2.64711 0.01 
19 2 2.66063 2.98187 0.01 
20 2 0.809296 3.96069 0.01 
ITEM: TIMESTEP
100878
ITEM: NUMBER OF ATOMS
20
ITEM: BOX BOUNDS pp pp pp
0.236691 2.70925
0.803941 4.29858
0 2
ITEM: ATOMS id type x y z 
1 1 2.67074 0.907444 0.01 
2 1 1.42211 0.899377 0.01 
3 1 2.06122 1.19405 0.01 
4 1 2.63956 1.56757 0.01 
5 1 0.746882 1.89097 0.01 
6 1 2.67509 2.24608 0.01 
7 1 0.794432 1.21541 0.01 
8 2 1.40601 2.28746 0.01 
14 2 1.43568 1.62276 0.01 
15 2 1.98867 1.95219 0.01 
17 2 1.43381 2.96884 0.01 
18 2 2.02685 2.62291 0.01 
9 2 2.65963 3.65783 0.01 
10 2 0.8037 3.31013 0.01 
11 2 2.04498 3.29567 0.01 
12 2 1.42219 3.64771 0.01 
13 2 2.0395 3.95638 0.01 
16 2 0.831432 2.64711 0.01 
19 2 2.66061 2.98186 0.01 
20 2 0.809305 3.96067 0.01 
ITEM: TIMESTEP
100879
ITEM: NUMBER OF ATOMS
20
ITEM: BOX BOUNDS pp pp pp
0.236677 2.70926
0.803921 4.2986
0 2
ITEM: ATOMS id type x y z 
1 1 2.67076 0.907425 0.01 
2 1 1.42211 0.899362 0.01 
3 1 2.06123 1.19404 0.01 
4 1 2.63958 1.56756 0.01 
5 1 0.746881 1.89095 0.01 
6 1 2.67511 2.24607 0.01 
7 1 0.794432 1.21539 0.01 
8 2 1.40602 2.28746 0.01 
14 2 1.43569 1.62276 0.01 
15 2 1.98868 1.9522 0.01 
17 2 1.4338 2.96885 0.01 
18 2 2.02686 2.62292 0.01 
9 2 2.65964 3.65784 0.01 
10 2 0.803683 3.31013 0.01 
11 2 2.04497 3.29568 0.01 
12 2 1.42218 3.64773 0.01 
13 2 2.03951 3.9564 0.01 
16 2 0.831421 2.6471 0.01 
19 2 2.66061 2.98187 0.01 
20 2 0.809295 3.96068 0.01 
ITEM: TIMESTEP
100880
ITEM: NUMBER OF ATOMS
20
ITEM: BOX BOUNDS pp pp pp
0.236691 2.70925
0.803941 4.29858
0 2
ITEM: ATOMS id type x y z 
1 1 2.67075 0.907444 0.01 
2 1 1.42211 0.899381 0.01 
3 1 2.06122 1.19405 0.01 
4 1 2.63956 1.56757 0.01 
5 1 0.74689 1.89096 0.01 
6 1 2.67509 2.24607 0.01 
7 1 0.794441 1.21541 0.01 
8 2 1.40602 2.28747 0.01 
14 2 1.43569 1.62277 0.01 
15 2 1.98868 1.9522 0.01 
17 2 1.4338 2.96884 0.01 
18 2 2.02685 2.62292 0.01 
9 2 2.65963 3.65783 0.01 
10 2 0.80369 3.31012 0.01 
11 2 2.04496 3.29567 0.01 
12 2 1.42218 3.64772 0.01 
13 2 2.0395 3.95638 0.01 
16 2 0.831428 2.6471 0.01 
19 2 2.6606 2.98186 0.01 
20 2 0.809302 3.96066 0.01 
ITEM: TIMESTEP
100881
ITEM: NUMBER OF ATOMS
20
ITEM: BOX BOUNDS pp pp pp
0.236679 2.70926
0.803924 4.2986
0 2
ITEM: ATOMS id type x y z 
1 1 2.67076 0.907427 0.01 
2 1 1.42211 0.899368 0.01 
3 1 2.06123 1.19404 0.01 
4 1 2.63958 1.56756 0.01 
5 1 0.74689 1.89094 0.01 
6 1 2.67511 2.24607 0.01 
7 1 0.794442 1.21539 0.01 
8 2 1.40602 2.28747 0.01 
14 2 1.4357 1.62276 0.01 
15 2 1.98869 1.95221 0.01 
17 2 1.43379 2.96885 0.01 
18 2 2.02686 2.62292 0.01 
9 2 2.65963 3.65784 0.01 
10 2 0.803673 3.31012 0.01 
11 2 2.04496 3.29569 0.01 
12 2 1.42218 3.64773 0.01 
13 2 2.03951 3.9564 0.01 
16 2 0.831419 2.64709 0.01 
19 2 2.6606 2.98186 0.01 
20 2 0.809293 3.96067 0.01 
ITEM: TIMESTEP
100882
ITEM: NUMBER OF ATOMS
20
ITEM: BOX BOUNDS pp pp pp
0.236691 2.70925
0.803941 4.29858
0 2
ITEM: ATOMS id type x y z 
1 1 2.67075 0.907443 0.01 
2 1 1.42211 0.899384 0.01 
3 1 2.06123 1.19405 0.01 
4 1 2.63957 1.56757 0.01 
5 1 0.746897 1.89095 0.01 
6 1 2.6751 2.24607 0.01 
7 1 0.79445 1.2154 0.01 
8 2 1.40602 2.28747 0.01 
14 2 1.4357 1.62277 0.01 
15 2 1.98869 1.95221 0.01 
17 2 1.43379 2.96885 0.01 
18 2 2.02685 2.62292 0.01 
9 2 2.65962 3.65783 0.01 
10 2 0.803679 3.31011 0.01 
11 2 2.04495 3.29568 0.01 
12 2 1.42218 3.64772 0.01 
13 2 2.0395 3.95638 0.01 
16 2 0.831425 2.64709 0.01 
19 2 2.66059 2.98186 0.01 
20 2 0.8093 3.96065 0.01 
ITEM: TIMESTEP
100883
ITEM: NUMBER OF ATOMS
20
ITEM: BOX BOUNDS pp pp pp
0.236681 2.70926
0.803926 4.29859
0 2
ITEM: ATOMS id type x y z 
1 1 2.67077 0.907428 0.01 
2 1 1.42211 0.899373 0.01 
3 1 2.06124 1.19405 0.01 
4 1 2.63958 1.56756 0.01 
5 1 0.746899 1.89093 0.01 
6 1 2.67512 2.24606 0.01 
7 1 0.794452 1.21539 0.01 
8 2 1.40602 2.28747 0.01 
14 2 1.43571 1.62277 0.01 
15 2 1.9887 1.95221 0.01 
17 2 1.43378 2.96885 0.01 
18 2 2.02685 2.62293 0.01 
9 2 2.65963 3.65783 0.01 
10 2 0.803663 3.31011 0.01 
11 2 2.04494 3.29569 0.01 
12 2 1.42217 3.64773 0.01 
13 2 2.03951 3.9564 0.01 
16 2 0.831417 2.64708 0.01 
19 2 2.66059 2.98186 0.01 
20 2 0.809292 3.96066 0.01 
ITEM: TIMESTEP
100884
ITEM: NUMBER OF ATOMS
20
ITEM: BOX BOUNDS pp pp pp
0.236691 2.70925
0.803941 4.29858
0 2
ITEM: ATOMS id type x y z 
1 1 2.67076 0.907442 0.01 
2 1 1.42211 0.899387 0.01 
3 1 2.06123 1.19406 0.01 
4 1 2.63957 1.56756 0.01 
5 1 0.746905 1.89094 0.01 
6 1 2.67511 2.24607 0.01 
7 1 0.794459 1.2154 0.01 
8 2 1.40602 2.28747 0.01 
14 2 1.43571 1.62278 0.01 
15 2 1.98869 1.95222 0.01 
17 2 1.43378 2.96885 0.01 
18 2 2.02685 2.62293 0.01 
9 2 2.65962 3.65782 0.01 
10 2 0.803668 3.31011 0.01 
11 2 2.04494 3.29568 0.01 
12 2 1.42217 3.64773 0.01 
13 2 2.0395 3.95639 0.01 
16 2 0.831422 2.64708 0.01 
19 2 2.66058 2.98185 0.01 
20 2 0.809297 3.96065 0.01 
ITEM: TIMESTEP
100885
ITEM: NUMBER OF ATOMS
20
ITEM: BOX BOUNDS pp pp pp
0.236682 2.70926
0.803929 4.29859
0 2
ITEM: ATOMS id type x y z 
1 1 2.67077 0.907429 0.01 
2 1 1.42212 0.899378 0.01 
3 1 2.06125 1.19405 0.01 
4 1 2.63959 1.56755 0.01 
5 1 0.746909 1.89093 0.01 
6 1 2.67512 2.24606 0.01 
7 1 0.794462 1.21538 0.01 
8 2 1.40603 2.28747 0.01 
14 2 1.43572 1.62277 0.01 
15 2 1.98871 1.95222 0.01 
17 2 1.43377 2.96886 0.01 
18 2 2.02685 2.62294 0.01 
9 2 2.65962 3.65783 0.01 
10 2 0.803651 3.31011 0.01 
11 2 2.04493 3.29569 0.01 
12 2 1.42216 3.64774 0.01 
13 2 2.0395 3.9564 0.01 
16 2 0.831415 2.64708 0.01 
19 2 2.66057 2.98185 0.01 
20 2 0.80929 3.96065 0.01 
ITEM: TIMESTEP
100886
ITEM: NUMBER OF ATOMS
20
ITEM: BOX BOUNDS pp pp pp
0.236691 2.70925
0.803942 4.29858
0 2
ITEM: ATOMS id type x y z 
1 1 2.67076 0.907441 0.01 
2 1 1.42212 0.89939 0.01 
3 1 2.06124 1.19406 0.01 
4 1 2.63958 1.56756 0.01 
5 1 0.746914 1.89093 0.01 
6 1 2.67511 2.24606 0.01 
7 1 0.794468 1.21539 0.01 
8 2 1.40603 2.28748 0.01 
14 2 1.43572 1.62278 0.01 
15 2 1.9887 1.95223 0.01 
17 2 1.43377 2.96885 0.01 
18 2 2.02685 2.62294 0.01 
9 2 2.65961 3.65782 0.01 
10 2 0.803656 3.3101 0.01 
11 2 2.04493 3.29569 0.01 
12 2 1.42216 3.64773 0.01 
13 2 2.0395 3.95639 0.01 
16 2 0.83142 2.64708 0.01 
19 2 2.66056 2.98185 0.01 
20 2 0.809295 3.96064 0.01 
ITEM: TIMESTEP
100887
ITEM: NUMBER OF ATOMS
20
ITEM: BOX BOUNDS pp pp pp
0.236684 2.70926
0.803931 4.29859
0 2
ITEM: ATOMS id type x y z 
1 1 2.67078 0.90743 0.01 
2 1 1.42212 0.899382 0.01 
3 1 2.06125 1.19406 0.01 
4 1 2.6396 1.56755 0.01 
5 1 0.746919 1.89093 0.01 
6 1 2.67513 2.24606 0.01 
7 1 0.794473 1.21538 0.01 
8 2 1.40603 2.28748 0.01 
14 2 1.43574 1.62278 0.01 
15 2 1.98872 1.95223 0.01 
17 2 1.43376 2.96886 0.01 
18 2 2.02685 2.62294 0.01 
9 2 2.65961 3.65783 0.01 
10 2 0.803638 3.3101 0.01 
11 2 2.04492 3.2957 0.01 
12 2 1.42215 3.64774 0.01 
13 2 2.0395 3.9564 0.01 
16 2 0.831413 2.64708 0.01 
19 2 2.66056 2.98185 0.01 
20 2 0.809288 3.96065 0.01 
ITEM: TIMESTEP
100888
ITEM: NUMBER OF ATOMS
20
ITEM: BOX BOUNDS pp pp pp
0.236692 2.70925
0.803942 4.29858
0 2
ITEM: ATOMS id type x y z 
1 1 2.67077 0.90744 0.01 
2 1 1.42212 0.899392 0.01 
3 1 2.06125 1.19406 0.01 
4 1 2.63959 1.56756 0.01 
5 1 0.746924 1.89093 0.01 
6 1 2.67512 2.24606 0.01 
7 1 0.794477 1.21539 0.01 
8 2 1.40603 2.28748 0.01 
14 2 1.43574 1.62278 0.01 
15 2 1.98871 1.95223 0.01 
17 2 1.43376 2.96886 0.01 
18 2 2.02685 2.62294 0.01 
9 2 2.6596 3.65782 0.01 
10 2 0.803642 3.3101 0.01 
11 2 2.04491 3.29569 0.01 
12 2 1.42215 3.64773 0.01 
13 2 2.0395 3.95639 0.01 
16 2 0.831417 2.64708 0.01 
19 2 2.66055 2.98185 0.01 
20 2 0.809292 3.96064 0.01 
ITEM: TIMESTEP
100889
ITEM: NUMBER OF ATOMS
20
ITEM: BOX BOUNDS pp pp pp
0.236686 2.70926
0.803934 4.29859
0 2
ITEM: ATOMS id type x y z 
1 1 2.67078 0.907432 0.01 
2 1 1.42212 0.899386 0.01 
3 1 2.06126 1.19406 0.01 
4 1 2.6396 1.56755 0.01 
5 1 0.746931 1.89093 0.01 
6 1 2.67513 2.24605 0.01 
7 1 0.794484 1.21538 0.01 
8 2 1.40604 2.28748 0.01 
14 2 1.43575 1.62278 0.01 
15 2 1.98872 1.95223 0.01 
17 2 1.43375 2.96886 0.01 
18 2 2.02685 2.62294 0.01 
9 2 2.65959 3.65782 0.01 
10 2 0.803624 3.3101 0.01 
11 2 2.0449 3.2957 0.01 
12 2 1.42214 3.64773 0.01 
13 2 2.03949 3.9564 0.01 
16 2 0.831412 2.64708 0.01 
19 2 2.66055 2.98185 0.01 
20 2 0.809285 3.96064 0.01 
ITEM: TIMESTEP
100890
ITEM: NUMBER OF ATOMS
20
ITEM: BOX BOUNDS pp pp pp
0.236692 2.70925
0.803942 4.29858
0 2
ITEM: ATOMS id type x y z 
1 1 2.67077 0.907439 0.01 
2 1 1.42212 0.899393 0.01 
3 1 2.06126 1.19407 0.01 
4 1 2.6396 1.56756 0.01 
5 1 0.746935 1.89093 0.01 
6 1 2.67512 2.24606 0.01 
7 1 0.794487 1.21539 0.01 
8 2 1.40604 2.28748 0.01 
14 2 1.43575 1.62279 0.01 
15 2 1.98872 1.95223 0.01 
17 2 1.43375 2.96886 0.01 
18 2 2.02685 2.62294 0.01 
9 2 2.65959 3.65782 0.01 
10 2 0.803627 3.31009 0.01 
11 2 2.0449 3.2957 0.01 
12 2 1.42214 3.64773 0.01 
13 2 2.03949 3.9564 0.01 
16 2 0.831415 2.64708 0.01 
19 2 2.66054 2.98185 0.01 
20 2 0.809288 3.96064 0.01 
ITEM: TIMESTEP
100891
ITEM: NUMBER OF ATOMS
20
ITEM: BOX BOUNDS pp pp pp
0.236691 2.70925
0.80394 4.29858
0 2
ITEM: ATOMS id type x y z 
1 1 2.67078 0.907437 0.01 
2 1 1.42212 0.899392 0.01 
3 1 2.06127 1.19406 0.01 
4 1 2.63961 1.56756 0.01 
5 1 0.746945 1.89093 0.01 
6 1 2.67513 2.24605 0.01 
7 1 0.794494 1.21539 0.01 
8 2 1.40604 2.28748 0.01 
14 2 1.43576 1.62278 0.01 
15 2 1.98873 1.95223 0.01 
17 2 1.43374 2.96886 0.01 
18 2 2.02685 2.62294 0.01 
9 2 2.65958 3.65782 0.01 
10 2 0.803612 3.31009 0.01 
11 2 2.04489 3.2957 0.01 
12 2 1.42213 3.64773 0.01 
13 2 2.03948 3.9564 0.01 
16 2 0.831414 2.64708 0.01 
19 2 2.66053 2.98184 0.01 
20 2 0.809283 3.96064 0.01 
ITEM: TIMESTEP
100892
ITEM: NUMBER OF ATOMS
20
ITEM: BOX BOUNDS pp pp pp
0.236692 2.70925
0.803942 4.29858
0 2
ITEM: ATOMS id type x y z 
1 1 2.67078 0.907439 0.01 
2 1 1.42212 0.899394 0.01 
3 1 2.06127 1.19407 0.01 
4 1 2.63961 1.56756 0.01 
5 1 0.746946 1.89093 0.01 
6 1 2.67513 2.24605 0.01 
7 1 0.794495 1.21539 0.01 
8 2 1.40604 2.28748 0.01 
14 2 1.43576 1.62279 0.01 
15 2 1.98873 1.95223 0.01 
17 2 1.43374 2.96886 0.01 
18 2 2.02684 2.62294 0.01 
9 2 2.65958 3.65782 0.01 
10 2 0.803613 3.31009 0.01 
11 2 2.04489 3.2957 0.01 
12 2 1.42213 3.64773 0.01 
13 2 2.03948 3.9564 0.01 
16 2 0.831415 2.64708 0.01 
19 2 2.66053 2.98184 0.01 
20 2 0.809283 3.96063 0.01 
ITEM: TIMESTEP
100619
ITEM: NUMBER OF ATOMS
20
ITEM: BOX BOUNDS pp pp pp
-0.148106 3.09405
0.194015 4.90851
0 2
ITEM: ATOMS id type x y z 
2 1 1.05551 0.523352 0.01 
3 1 1.86923 0.917264 0.01 
4 1 2.71447 0.50404 0.01 
5 1 0.228247 1.97995 0.01 
6 1 2.72217 2.44457 0.01 
7 1 0.268907 0.980048 0.01 
8 2 1.88726 1.89561 0.01 
14 2 1.08264 1.49782 0.01 
15 2 2.66642 1.45396 0.01 
17 2 1.10147 2.38569 0.01 
1 1 0.269344 4.78209 0.01 
9 2 0.272546 3.82563 0.01 
10 2 1.09267 3.35199 0.01 
11 2 1.89362 3.81954 0.01 
12 2 1.88514 4.69892 0.01 
13 2 2.6869 4.26903 0.01 
16 2 0.315172 2.93768 0.01 
18 2 1.86821 2.85174 0.01 
19 2 2.70626 3.3897 0.01 
20 2 1.09335 4.27286 0.01 
ITEM: TIMESTEP
100620
ITEM: NUMBER OF ATOMS
20
ITEM: BOX BOUNDS pp pp pp
-0.148096 3.09404
0.19403 4.90849
0 2
ITEM: ATOMS id type x y z 
2 1 1.05552 0.523366 0.01 
3 1 1.86923 0.917276 0.01 
4 1 2.71446 0.504053 0.01 
5 1 0.228252 1.97996 0.01 
6 1 2.72216 2.44457 0.01 
7 1 0.268916 0.980054 0.01 
8 2 1.88725 1.89561 0.01 
14 2 1.08264 1.49783 0.01 
15 2 2.66642 1.45397 0.01 
17 2 1.10147 2.38569 0.01 
1 1 0.269351 4.78208 0.01 
9 2 0.272555 3.82562 0.01 
10 2 1.09267 3.35199 0.01 
11 2 1.89362 3.81953 0.01 
12 2 1.88514 4.6989 0.01 
13 2 2.68689 4.26902 0.01 
16 2 0.31518 2.93768 0.01 
18 2 1.86821 2.85174 0.01 
19 2 2.70625 3.38969 0.01 
20 2 1.09335 4.27285 0.01 
ITEM: TIMESTEP
100621
ITEM: NUMBER OF ATOMS
20
ITEM: BOX BOUNDS pp pp pp
-0.148106 3.09405
0.194015 4.90851
0 2
ITEM: ATOMS id type x y z 
2 1 1.05552 0.523354 0.01 
3 1 1.86923 0.917266 0.01 
4 1 2.71447 0.50404 0.01 
5 1 0.228243 1.97995 0.01 
6 1 2.72217 2.44457 0.01 
7 1 0.268909 0.980043 0.01 
8 2 1.88726 1.89561 0.01 
14 2 1.08263 1.49782 0.01 
15 2 2.66643 1.45396 0.01 
17 2 1.10147 2.38569 0.01 
1 1 0.269344 4.78209 0.01 
9 2 0.272549 3.82563 0.01 
10 2 1.09267 3.352 0.01 
11 2 1.89362 3.81954 0.01 
12 2 1.88514 4.69892 0.01 
13 2 2.6869 4.26903 0.01 
16 2 0.315173 2.93768 0.01 
18 2 1.86821 2.85174 0.01 
19 2 2.70626 3.3897 0.01 
20 2 1.09335 4.27286 0.01 
ITEM: TIMESTEP
100622
ITEM: NUMBER OF ATOMS
20
ITEM: BOX BOUNDS pp pp pp
-0.148097 3.09404
0.194029 4.90849
0 2
ITEM: ATOMS id type x y z 
2 1 1.05552 0.523367 0.01 
3 1 1.86923 0.917277 0.01 
4 1 2.71446 0.504051 0.01 
5 1 0.228248 1.97996 0.01 
6 1 2.72216 2.44457 0.01 
7 1 0.268917 0.98005 0.01 
8 2 1.88725 1.89561 0.01 
14 2 1.08263 1.49783 0.01 
15 2 2.66642 1.45397 0.01 
17 2 1.10147 2.38569 0.01 
1 1 0.269351 4.78208 0.01 
9 2 0.272558 3.82562 0.01 
10 2 1.09267 3.35199 0.01 
11 2 1.89362 3.81953 0.01 
12 2 1.88514 4.69891 0.01 
13 2 2.68689 4.26902 0.01 
16 2 0.315179 2.93768 0.01 
18 2 1.8682 2.85174 0.01 
19 2 2.70626 3.38969 0.01 
20 2 1.09335 4.27285 0.01 
ITEM: TIMESTEP
100623
ITEM: NUMBER OF ATOMS
20
ITEM: BOX BOUNDS pp pp pp
-0.148106 3.09405
0.194015 4.90851
0 2
ITEM: ATOMS id type x y z 
2 1 1.05552 0.523355 0.01 
3 1 1.86923 0.917268 0.01 
4 1 2.71447 0.504039 0.01 
5 1 0.228239 1.97995 0.01 
6 1 2.72216 2.44457 0.01 
7 1 0.26891 0.980039 0.01 
8 2 1.88726 1.89561 0.01 
14 2 1.08263 1.49782 0.01 
15 2 2.66643 1.45396 0.01 
17 2 1.10147 2.38569 0.01 
1 1 0.269344 4.78209 0.01 
9 2 0.272551 3.82563 0.01 
10 2 1.09267 3.352 0.01 
11 2 1.89362 3.81954 0.01 
12 2 1.88514 4.69892 0.01 
13 2 2.6869 4.26902 0.01 
16 2 0.315173 2.93768 0.01 
18 2 1.8682 2.85174 0.01 
19 2 2.70626 3.3897 0.01 
20 2 1.09335 4.27286 0.01 
ITEM: TIMESTEP
100624
ITEM: NUMBER OF ATOMS
20
ITEM: BOX BOUNDS pp pp pp
-0.148098 3.09404
0.194028 4.90849
0 2
ITEM: ATOMS id type x y z 
2 1 1.05552 0.523367 0.01 
3 1 1.86923 0.917278 0.01 
4 1 2.71446 0.50405 0.01 
5 1 0.228244 1.97996 0.01 
6 1 2.72215 2.44458 0.01 
7 1 0.268918 0.980045 0.01 
8 2 1.88725 1.89561 0.01 
14 2 1.08263 1.49783 0.01 
15 2 2.66642 1.45396 0.01 
17 2 1.10147 2.38569 0.01 
1 1 0.269351 4.78208 0.01 
9 2 0.27256 3.82562 0.01 
10 2 1.09267 3.352 0.01 
11 2 1.89362 3.81953 0.01 
12 2 1.88514 4.69891 0.01 
13 2 2.68689 4.26901 0.01 
16 2 0.315179 2.93768 0.01 
18 2 1.8682 2.85174 0.01 
19 2 2.70626 3.38969 0.01 
20 2 1.09335 4.27286 0.01 
ITEM: TIMESTEP
100625
ITEM: NUMBER OF ATOMS
20
ITEM: BOX BOUNDS pp pp pp
-0.148106 3.09405
0.194015 4.90851
0 2
ITEM: ATOMS id type x y z 
2 1 1.05552 0.523356 0.01 
3 1 1.86923 0.917269 0.01 
4 1 2.71447 0.504039 0.01 
5 1 0.228236 1.97995 0.01 
6 1 2.72216 2.44457 0.01 
7 1 0.268912 0.980036 0.01 
8 2 1.88726 1.89561 0.01 
14 2 1.08263 1.49783 0.01 
15 2 2.66643 1.45396 0.01 
17 2 1.10146 2.38569 0.01 
1 1 0.269344 4.78209 0.01 
9 2 0.272554 3.82563 0.01 
10 2 1.09267 3.352 0.01 
11 2 1.89362 3.81954 0.01 
12 2 1.88514 4.69892 0.01 
13 2 2.6869 4.26902 0.01 
16 2 0.315173 2.93768 0.01 
18 2 1.8682 2.85174 0.01 
19 2 2.70627 3.3897 0.01 
20 2 1.09335 4.27287 0.01 
ITEM: TIMESTEP
100626
ITEM: NUMBER OF ATOMS
20
ITEM: BOX BOUNDS pp pp pp
-0.148098 3.09404
0.194027 4.90849
0 2
ITEM: ATOMS id type x y z 
2 1 1.05552 0.523368 0.01 
3 1 1.86923 0.917279 0.01 
4 1 2.71446 0.504049 0.01 
5 1 0.22824 1.97996 0.01 
6 1 2.72215 2.44458 0.01 
7 1 0.268919 0.980041 0.01 
8 2 1.88725 1.89561 0.01 
14 2 1.08263 1.49783 0.01 
15 2 2.66643 1.45396 0.01 
17 2 1.10146 2.38569 0.01 
1 1 0.269351 4.78208 0.01 
9 2 0.272562 3.82562 0.01 
10 2 1.09267 3.352 0.01 
11 2 1.89362 3.81953 0.01 
12 2 1.88514 4.69891 0.01 
13 2 2.6869 4.26901 0.01 
16 2 0.315178 2.93768 0.01 
18 2 1.8682 2.85174 0.01 
19 2 2.70626 3.38969 0.01 
20 2 1.09336 4.27286 0.01 
ITEM: TIMESTEP
100627
ITEM: NUMBER OF ATOMS
20
ITEM: BOX BOUNDS pp pp pp
-0.148106 3.09405
0.194015 4.90851
0 2
ITEM: ATOMS id type x y z 
2 1 1.05552 0.523358 0.01 
3 1 1.86923 0.917271 0.01 
4 1 2.71446 0.504038 0.01 
5 1 0.228233 1.97995 0.01 
6 1 2.72216 2.44458 0.01 
7 1 0.268913 0.980032 0.01 
8 2 1.88726 1.89561 0.01 
14 2 1.08262 1.49783 0.01 
15 2 2.66643 1.45396 0.01 
17 2 1.10146 2.38569 0.01 
1 1 0.269345 4.78209 0.01 
9 2 0.272556 3.82563 0.01 
10 2 1.09267 3.352 0.01 
11 2 1.89363 3.81954 0.01 
12 2 1.88514 4.69892 0.01 
13 2 2.6869 4.26902 0.01 
16 2 0.315172 2.93768 0.01 
18 2 1.8682 2.85174 0.01 
19 2 2.70627 3.3897 0.01 
20 2 1.09335 4.27287 0.01 
ITEM: TIMESTEP
100628
ITEM: NUMBER OF ATOMS
20
ITEM: BOX BOUNDS pp pp pp
-0.148099 3.09404
0.194026 4.90849
0 2
ITEM: ATOMS id type x y z 
2 1 1.05553 0.523368 0.01 
3 1 1.86923 0.91728 0.01 
4 1 2.71446 0.504048 0.01 
5 1 0.228237 1.97996 0.01 
6 1 2.72215 2.44458 0.01 
7 1 0.268919 0.980037 0.01 
8 2 1.88725 1.89561 0.01 
14 2 1.08262 1.49783 0.01 
15 2 2.66643 1.45396 0.01 
17 2 1.10146 2.38569 0.01 
1 1 0.269351 4.78208 0.01 
9 2 0.272564 3.82562 0.01 
10 2 1.09267 3.352 0.01 
11 2 1.89362 3.81953 0.01 
12 2 1.88514 4.69891 0.01 
13 2 2.6869 4.26901 0.01 
16 2 0.315178 2.93768 0.01 
18 2 1.86819 2.85174 0.01 
19 2 2.70626 3.38969 0.01 
20 2 1.09336 4.27286 0.01 
ITEM: TIMESTEP
100629
ITEM: NUMBER OF ATOMS
20
ITEM: BOX BOUNDS pp pp pp
-0.148106 3.09405
0.194015 4.90851
0 2
ITEM: ATOMS id type x y z 
2 1 1.05553 0.523359 0.01 
3 1 1.86923 0.917272 0.01 
4 1 2.71446 0.504037 0.01 
5 1 0.22823 1.97995 0.01 
6 1 2.72215 2.44458 0.01 
7 1 0.268914 0.980029 0.01 
8 2 1.88725 1.8956 0.01 
14 2 1.08262 1.49783 0.01 
15 2 2.66643 1.45396 0.01 
17 2 1.10146 2.38569 0.01 
1 1 0.269345 4.78209 0.01 
9 2 0.272559 3.82563 0.01 
10 2 1.09267 3.35201 0.01 
11 2 1.89363 3.81954 0.01 
12 2 1.88515 4.69892 0.01 
13 2 2.6869 4.26902 0.01 
16 2 0.315172 2.93768 0.01 
18 2 1.86819 2.85174 0.01 
19 2 2.70627 3.3897 0.01 
20 2 1.09336 4.27287 0.01 
ITEM: TIMESTEP
100630
ITEM: NUMBER OF ATOMS
20
ITEM: BOX BOUNDS pp pp pp
-0.148099 3.09404
0.194026 4.90849
0 2
ITEM: ATOMS id type x y z 
2 1 1.05553 0.523369 0.01 
3 1 1.86923 0.917281 0.01 
4 1 2.71446 0.504046 0.01 
5 1 0.228234 1.97996 0.01 
6 1 2.72214 2.44458 0.01 
7 1 0.26892 0.980034 0.01 
8 2 1.88725 1.89561 0.01 
14 2 1.08262 1.49783 0.01 
15 2 2.66643 1.45396 0.01 
17 2 1.10146 2.38569 0.01 
1 1 0.269351 4.78208 0.01 
9 2 0.272566 3.82562 0.01 
10 2 1.09267 3.352 0.01 
11 2 1.89363 3.81953 0.01 
12 2 1.88515 4.69891 0.01 
13 2 2.6869 4.26901 0.01 
16 2 0.315178 2.93767 0.01 
18 2 1.86819 2.85174 0.01 
19 2 2.70627 3.38969 0.01 
20 2 1.09336 4.27287 0.01 
ITEM: TIMESTEP
100631
ITEM: NUMBER OF ATOMS
20
ITEM: BOX BOUNDS pp pp pp
-0.148106 3.09405
0.194015 4.90851
0 2
ITEM: ATOMS id type x y z 
2 1 1.05553 0.52336 0.01 
3 1 1.86923 0.917273 0.01 
4 1 2.71446 0.504037 0.01 
5 1 0.228227 1.97996 0.01 
6 1 2.72215 2.44458 0.01 
7 1 0.268915 0.980026 0.01 
8 2 1.88725 1.8956 0.01 
14 2 1.08262 1.49783 0.01 
15 2 2.66644 1.45396 0.01 
17 2 1.10146 2.38569 0.01 
1 1 0.269346 4.78209 0.01 
9 2 0.272561 3.82563 0.01 
10 2 1.09267 3.35201 0.01 
11 2 1.89363 3.81954 0.01 
12 2 1.88515 4.69892 0.01 
13 2 2.6869 4.26902 0.01 
16 2 0.315172 2.93768 0.01 
18 2 1.86819 2.85174 0.01 
19 2 2.70627 3.3897 0.01 
20 2 1.09336 4.27287 0.01 
ITEM: TIMESTEP
100632
ITEM: NUMBER OF ATOMS
20
ITEM: BOX BOUNDS pp pp pp
-0.148099 3.09404
0.194025 4.9085
0 2
ITEM: ATOMS id type x y z 
2 1 1.05553 0.523369 0.01 
3 1 1.86923 0.917281 0.01 
4 1 2.71446 0.504045 0.01 
5 1 0.228231 1.97996 0.01 
6 1 2.72214 2.44458 0.01 
7 1 0.268921 0.980031 0.01 
8 2 1.88725 1.8956 0.01 
14 2 1.08262 1.49783 0.01 
15 2 2.66643 1.45396 0.01 
17 2 1.10146 2.38569 0.01 
1 1 0.269351 4.78208 0.01 
9 2 0.272567 3.82563 0.01 
10 2 1.09267 3.35201 0.01 
11 2 1.89363 3.81953 0.01 
12 2 1.88515 4.69891 0.01 
13 2 2.6869 4.26901 0.01 
16 2 0.315177 2.93767 0.01 
18 2 1.86818 2.85174 0.01 
19 2 2.70627 3.38969 0.01 
20 2 1.09336 4.27287 0.01 
ITEM: TIMESTEP
100633
ITEM: NUMBER OF ATOMS
20
ITEM: BOX BOUNDS pp pp pp
-0.148106 3.09405
0.194015 4.90851
0 2
ITEM: ATOMS id type x y z 
2 1 1.05553 0.523361 0.01 
3 1 1.86923 0.917275 0.01 
4 1 2.71446 0.504036 0.01 
5 1 0.228225 1.97996 0.01 
6 1 2.72214 2.44458 0.01 
7 1 0.268916 0.980023 0.01 
8 2 1.88725 1.8956 0.01 
14 2 1.08261 1.49783 0.01 
15 2 2.66644 1.45395 0.01 
17 2 1.10146 2.38569 0.01 
1 1 0.269346 4.78209 0.01 
9 2 0.272563 3.82563 0.01 
10 2 1.09267 3.35201 0.01 
11 2 1.89363 3.81954 0.01 
12 2 1.88515 4.69892 0.01 
13 2 2.68691 4.26902 0.01 
16 2 0.315172 2.93767 0.01 
18 2 1.86819 2.85174 0.01 
19 2 2.70627 3.3897 0.01 
20 2 1.09336 4.27288 0.01 
ITEM: TIMESTEP
100634
ITEM: NUMBER OF ATOMS
20
ITEM: BOX BOUNDS pp pp pp
-0.1481 3.09404
0.194024 4.9085
0 2
ITEM: ATOMS id type x y z 
2 1 1.05553 0.52337 0.01 
3 1 1.86923 0.917282 0.01 
4 1 2.71446 0.504044 0.01 
5 1 0.228228 1.97996 0.01 
6 1 2.72214 2.44458 0.01 
7 1 0.268921 0.980028 0.01 
8 2 1.88725 1.8956 0.01 
14 2 1.08261 1.49784 0.01 
15 2 2.66643 1.45396 0.01 
17 2 1.10146 2.38569 0.01 
1 1 0.269352 4.78208 0.01 
9 2 0.272569 3.82563 0.01 
10 2 1.09267 3.35201 0.01 
11 2 1.89363 3.81953 0.01 
12 2 1.88515 4.69891 0.01 
13 2 2.6869 4.26901 0.01 
16 2 0.315177 2.93767 0.01 
18 2 1.86818 2.85174 0.01 
19 2 2.70627 3.38969 0.01 
20 2 1.09336 4.27287 0.01 
ITEM: TIMESTEP
100635
ITEM: NUMBER OF ATOMS
20
ITEM: BOX BOUNDS pp pp pp
-0.148106 3.09405
0.194015 4.90851
0 2
ITEM: ATOMS id type x y z 
2 1 1.05553 0.523362 0.01 
3 1 1.86923 0.917276 0.01 
4 1 2.71446 0.504036 0.01 
5 1 0.228222 1.97996 0.01 
6 1 2.72214 2.44458 0.01 
7 1 0.268917 0.980021 0.01 
8 2 1.88725 1.8956 0.01 
14 2 1.08261 1.49783 0.01 
15 2 2.66644 1.45395 0.01 
17 2 1.10145 2.38569 0.01 
1 1 0.269347 4.78209 0.01 
9 2 0.272565 3.82563 0.01 
10 2 1.09267 3.35201 0.01 
11 2 1.89363 3.81954 0.01 
12 2 1.88515 4.69892 0.01 
13 2 2.68691 4.26902 0.01 
16 2 0.315172 2.93767 0.01 
18 2 1.86818 2.85174 0.01 
19 2 2.70628 3.3897 0.01 
20 2 1.09336 4.27288 0.01 
ITEM: TIMESTEP
100636
ITEM: NUMBER OF ATOMS
20
ITEM: BOX BOUNDS pp pp pp
-0.1481 3.09404
0.194024 4.9085
0 2
ITEM: ATOMS id type x y z 
2 1 1.05553 0.52337 0.01 
3 1 1.86923 0.917283 0.01 
4 1 2.71446 0.504044 0.01 
5 1 0.228226 1.97996 0.01 
6 1 2.72213 2.44458 0.01 
7 1 0.268922 0.980025 0.01 
8 2 1.88725 1.8956 0.01 
14 2 1.08261 1.49784 0.01 
15 2 2.66644 1.45396 0.01 
17 2 1.10145 2.38569 0.01 
1 1 0.269352 4.78208 0.01 
9 2 0.272571 3.82563 0.01 
10 2 1.09267 3.35201 0.01 
11 2 1.89363 3.81953 0.01 
12 2 1.88515 4.69891 0.01 
13 2 2.6869 4.26901 0.01 
16 2 0.315176 2.93767 0.01 
18 2 1.86818 2.85174 0.01 
19 2 2.70627 3.38969 0.01 
20 2 1.09336 4.27287 0.01 
ITEM: TIMESTEP
100637
ITEM: NUMBER OF ATOMS
20
ITEM: BOX BOUNDS pp pp pp
-0.148106 3.09405
0.194015 4.90851
0 2
ITEM: ATOMS id type x y z 
2 1 1.05553 0.523363 0.01 
3 1 1.86923 0.917276 0.01 
4 1 2.71446 0.504036 0.01 
5 1 0.22822 1.97996 0.01 
6 1 2.72214 2.44458 0.01 
7 1 0.268917 0.980018 0.01 
8 2 1.88725 1.8956 0.01 
14 2 1.08261 1.49783 0.01 
15 2 2.66644 1.45395 0.01 
17 2 1.10145 2.38569 0.01 
1 1 0.269348 4.78209 0.01 
9 2 0.272566 3.82563 0.01 
10 2 1.09266 3.35202 0.01 
11 2 1.89363 3.81953 0.01 
12 2 1.88515 4.69892 0.01 
13 2 2.68691 4.26902 0.01 
16 2 0.315172 2.93767 0.01 
18 2 1.86818 2.85174 0.01 
19 2 2.70628 3.3897 0.01 
20 2 1.09336 4.27288 0.01 
ITEM: TIMESTEP
100638
ITEM: NUMBER OF ATOMS
20
ITEM: BOX BOUNDS pp pp pp
-0.148101 3.09404
0.194023 4.9085
0 2
ITEM: ATOMS id type x y z 
2 1 1.05554 0.523371 0.01 
3 1 1.86923 0.917283 0.01 
4 1 2.71446 0.504043 0.01 
5 1 0.228223 1.97996 0.01 
6 1 2.72213 2.44458 0.01 
7 1 0.268922 0.980022 0.01 
8 2 1.88725 1.8956 0.01 
14 2 1.08261 1.49784 0.01 
15 2 2.66644 1.45396 0.01 