ITEM: TIMESTEP
101306
ITEM: NUMBER OF ATOMS
18
ITEM: BOX BOUNDS pp pp pp
-1.81007 4.60485
1.69553 15.0732
0 2
ITEM: ATOMS id type x y z 
7 2 -1.49495 3.53162 0.01 
6 1 0.406552 2.18947 0.01 
3 1 2.61819 2.88468 0.01 
1 1 0.70259 4.68436 0.01 
10 2 -1.36434 5.65295 0.01 
9 2 1.75642 6.81208 0.01 
8 2 3.03169 5.13258 0.01 
11 2 -0.166733 7.22535 0.01 
12 2 -0.92224 9.10357 0.01 
5 1 1.39461 9.18181 0.01 
4 1 3.79619 7.62264 0.01 
14 2 -0.364259 11.0668 0.01 
13 2 3.57584 10.0822 0.01 
15 2 1.82696 11.6062 0.01 
18 2 4.08689 12.3861 0.01 
16 2 -0.0273884 13.273 0.01 
2 1 4.48782 14.6721 0.01 
17 2 2.22236 13.9543 0.01 
ITEM: TIMESTEP
101274
ITEM: NUMBER OF ATOMS
18
ITEM: BOX BOUNDS pp pp pp
-0.950779 3.74556
-0.852075 17.6208
0 2
ITEM: ATOMS id type x y z 
7 2 -0.0189341 1.21926 0.01 
1 1 2.32958 1.2185 0.01 
2 1 1.01257 -0.849304 0.01 
17 2 3.36104 -0.848218 0.01 
8 2 1.29769 3.28425 0.01 
3 1 3.64581 3.2886 0.01 
9 2 0.253249 5.31053 0.01 
10 2 2.60415 5.35337 0.01 
4 1 -0.786306 7.37547 0.01 
11 2 1.55615 7.37913 0.01 
12 2 0.505739 9.42269 0.01 
13 2 2.85456 9.42072 0.01 
5 1 1.8015 11.4664 0.01 
14 2 -0.546719 11.4667 0.01 
15 2 0.748869 13.5121 0.01 
16 2 3.09662 13.5107 0.01 
6 1 -0.306993 15.5558 0.01 
18 2 2.04694 15.557 0.01 
ITEM: TIMESTEP
101120
ITEM: NUMBER OF ATOMS
18
ITEM: BOX BOUNDS pp pp pp
-0.959282 3.75407
-1.81708 18.5858
0 2
ITEM: ATOMS id type x y z 
2 1 0.82518 -0.558623 0.01 
7 2 3.18214 -0.557586 0.01 
1 1 -0.353318 1.48363 0.01 
3 1 2.00346 1.48328 0.01 
8 2 0.825274 3.52359 0.01 
10 2 3.18151 3.52405 0.01 
9 2 2.00291 5.56647 0.01 
4 1 -0.352952 5.564 0.01 
11 2 3.1853 7.60424 0.01 
12 2 2.00496 9.64219 0.01 
13 2 -0.350058 9.64354 0.01 
5 1 3.18359 11.682 0.01 
14 2 0.827855 11.6857 0.01 
15 2 -0.355585 13.7228 0.01 
16 2 0.823141 15.7616 0.01 
18 2 3.17863 15.7614 0.01 
6 1 -0.356136 17.8016 0.01 
17 2 2.00071 17.8035 0.01 
ITEM: TIMESTEP
101023
ITEM: NUMBER OF ATOMS
18
ITEM: BOX BOUNDS pp pp pp
-1.72355 4.51834
1.06297 15.7057
0 2
ITEM: ATOMS id type x y z 
1 1 1.20085 3.01563 0.01 
7 2 -1.05019 2.22715 0.01 
17 2 2.90241 1.46795 0.01 
8 2 -0.480494 4.58899 0.01 
3 1 3.497 3.77883 0.01 
9 2 1.77724 5.32036 0.01 
4 1 0.103492 6.95424 0.01 
10 2 4.10327 6.06921 0.01 
11 2 2.44462 7.55627 0.01 
12 2 1.03077 9.19773 0.01 
13 2 -0.55798 10.7543 0.01 
14 2 3.42226 9.81177 0.01 
16 2 0.0632898 13.0235 0.01 
5 1 1.75259 11.4466 0.01 
15 2 4.00053 12.2241 0.01 
2 1 0.649863 15.3233 0.01 
6 1 -1.64839 14.5512 0.01 
18 2 2.34393 13.7642 0.01 
ITEM: TIMESTEP
101352
ITEM: NUMBER OF ATOMS
18
ITEM: BOX BOUNDS pp pp pp
-1.71863 4.51341
1.05666 15.712
0 2
ITEM: ATOMS id type x y z 
7 2 0.440742 3.06525 0.01 
2 1 -1.23863 1.49373 0.01 
1 1 2.71129 2.27617 0.01 
4 1 -0.176498 5.37067 0.01 
3 1 4.39061 3.81883 0.01 
8 2 2.118 4.58815 0.01 
11 2 -0.749096 7.74386 0.01 
9 2 1.51502 6.88017 0.01 
10 2 3.81266 6.13319 0.01 
14 2 -1.6871 10.0322 0.01 
12 2 3.11947 8.40296 0.01 
5 1 2.19694 10.6453 0.01 
13 2 -0.0374634 11.5347 0.01 
15 2 1.62159 13.0271 0.01 
16 2 3.86686 12.2698 0.01 
6 1 -0.662706 13.8182 0.01 
18 2 1.01986 15.3763 0.01 
17 2 3.29286 14.5991 0.01 
ITEM: TIMESTEP
101269
ITEM: NUMBER OF ATOMS
18
ITEM: BOX BOUNDS pp pp pp
-1.7872 4.58198
1.60389 15.1648
0 2
ITEM: ATOMS id type x y z 
7 2 -0.998154 3.40117 0.01 
1 1 0.919189 2.00673 0.01 
3 1 1.28033 4.31177 0.01 
17 2 3.15356 2.82669 0.01 
4 1 1.13888 6.82542 0.01 
10 2 -0.705398 5.46189 0.01 
8 2 3.34553 5.42819 0.01 
11 2 0.109323 8.88999 0.01 
13 2 -1.29802 7.44629 0.01 
9 2 3.07763 7.81446 0.01 
12 2 2.01912 9.5504 0.01 
15 2 0.135085 11.0647 0.01 
16 2 -1.74691 12.3924 0.01 
5 1 4.3352 9.93183 0.01 
14 2 2.46995 11.699 0.01 
18 2 0.540229 13.2773 0.01 
2 1 -1.37301 14.7132 0.01 
6 1 2.79154 14.0222 0.01 
ITEM: TIMESTEP
101340
ITEM: NUMBER OF ATOMS
18
ITEM: BOX BOUNDS pp pp pp
-1.76954 4.56432
1.4861 15.2826
0 2
ITEM: ATOMS id type x y z 
2 1 -0.515633 2.61343 0.01 
7 2 1.39138 3.85394 0.01 
3 1 3.67771 3.84968 0.01 
1 1 1.78932 1.72189 0.01 
8 2 -0.497761 4.96368 0.01 
9 2 1.94691 5.85377 0.01 
10 2 4.10383 6.35525 0.01 
4 1 0.036212 7.24401 0.01 
14 2 0.564575 9.51714 0.01 
11 2 2.3085 8.14678 0.01 
12 2 4.46802 8.65954 0.01 
13 2 -1.31196 10.6764 0.01 
15 2 0.56185 11.8255 0.01 
5 1 2.72719 10.6488 0.01 
18 2 -0.0488008 14.0921 0.01 
16 2 4.42929 12.6829 0.01 
6 1 2.26437 13.3091 0.01 
17 2 3.99984 15.0524 0.01 
ITEM: TIMESTEP
101257
ITEM: NUMBER OF ATOMS
18
ITEM: BOX BOUNDS pp pp pp
-1.72687 4.52165
0.995839 15.7729
0 2
ITEM: ATOMS id type x y z 
7 2 1.03706 2.15431 0.01 
2 1 -1.25472 1.38922 0.01 
1 1 3.31172 2.94021 0.01 
3 1 -0.655003 3.72498 0.01 
8 2 1.62235 4.50368 0.01 
10 2 3.87526 5.29021 0.01 
4 1 -0.0679208 6.02876 0.01 
11 2 -1.72367 7.58145 0.01 
9 2 2.17148 6.92649 0.01 
13 2 -0.750291 9.85043 0.01 
12 2 3.10966 9.23485 0.01 
14 2 1.51312 10.787 0.01 
15 2 -0.164122 12.2729 0.01 
5 1 3.82608 11.4978 0.01 
6 1 2.13683 13.0651 0.01 
18 2 0.436317 14.6071 0.01 
16 2 4.40316 13.8314 0.01 
17 2 2.72818 15.3909 0.01 
ITEM: TIMESTEP
101179
ITEM: NUMBER OF ATOMS
18
ITEM: BOX BOUNDS pp pp pp
-1.73486 4.52964
0.609324 16.1594
0 2
ITEM: ATOMS id type x y z 
7 2 0.986415 2.18394 0.01 
2 1 -1.19864 1.30192 0.01 
3 1 -1.00182 3.58666 0.01 
8 2 1.08774 4.57439 0.01 
4 1 -0.903105 5.97431 0.01 
11 2 -0.565712 8.34011 0.01 
9 2 1.27631 6.86185 0.01 
10 2 3.51531 7.53044 0.01 
14 2 -0.184694 10.6753 0.01 
12 2 1.66282 9.1368 0.01 
13 2 3.8637 9.89706 0.01 
16 2 0.213531 13.0074 0.01 
5 1 2.03784 11.4599 0.01 
15 2 4.25247 12.2387 0.01 
18 2 0.619943 15.3469 0.01 
17 2 -1.62333 14.5624 0.01 
1 1 2.82296 16.1593 0.01 
6 1 2.43026 13.7979 0.01 
ITEM: TIMESTEP
101370
ITEM: NUMBER OF ATOMS
18
ITEM: BOX BOUNDS pp pp pp
-0.660392 3.45517
-2.30989 19.0786
0 2
ITEM: ATOMS id type x y z 
2 1 2.8984 -1.70834 0.01 
1 1 0.840523 -0.514095 0.01 
7 2 2.89825 0.668034 0.01 
3 1 0.840407 1.86599 0.01 
8 2 2.89814 3.04983 0.01 
9 2 0.840285 4.23964 0.01 
4 1 2.89805 5.42635 0.01 
11 2 0.840278 6.61432 0.01 
10 2 2.89812 7.80246 0.01 
12 2 0.840433 8.99257 0.01 
13 2 2.89832 10.1808 0.01 
5 1 0.84059 11.3685 0.01 
14 2 2.89842 12.556 0.01 
15 2 0.840691 13.7445 0.01 
16 2 0.840714 16.1206 0.01 
6 1 2.89849 14.9315 0.01 
18 2 0.840652 18.502 0.01 
17 2 2.89848 17.3071 0.01 
ITEM: TIMESTEP
101300
ITEM: NUMBER OF ATOMS
18
ITEM: BOX BOUNDS pp pp pp
-1.80842 4.6032
1.56316 15.2055
0 2
ITEM: ATOMS id type x y z 
2 1 -0.149108 1.96895 0.01 
3 1 0.217976 4.28638 0.01 
7 2 4.33532 3.36461 0.01 
17 2 2.09824 2.78865 0.01 
4 1 0.0696247 6.82334 0.01 
8 2 -1.77971 5.43796 0.01 
9 2 2.28997 5.4101 0.01 
12 2 -0.979046 8.9017 0.01 
14 2 0.951152 9.55512 0.01 
10 2 4.03004 7.43665 0.01 
11 2 2.02627 7.81016 0.01 
13 2 -0.947199 11.0874 0.01 
5 1 3.28094 9.94464 0.01 
15 2 1.40467 11.7183 0.01 
16 2 3.57005 12.4174 0.01 
18 2 -0.534638 13.3122 0.01 
1 1 3.95084 14.7482 0.01 
6 1 1.73058 14.053 0.01 
ITEM: TIMESTEP
101402
ITEM: NUMBER OF ATOMS
18
ITEM: BOX BOUNDS pp pp pp
-1.74183 4.53661
0.589112 16.1796
0 2
ITEM: ATOMS id type x y z 
2 1 -0.262649 0.820658 0.01 
3 1 -0.639089 3.18301 0.01 
7 2 1.56165 2.35145 0.01 
17 2 3.79983 1.61287 0.01 
8 2 1.30924 4.67618 0.01 
4 1 -0.873998 5.51395 0.01 
9 2 0.964519 7.05977 0.01 
11 2 -1.26826 7.81165 0.01 
10 2 3.16299 6.248 0.01 
13 2 -1.38329 10.1333 0.01 
12 2 2.83643 8.63231 0.01 
5 1 2.71375 10.9821 0.01 
14 2 0.478811 11.7069 0.01 
16 2 -1.72281 12.503 0.01 
15 2 2.33778 13.3021 0.01 
18 2 0.125634 14.0723 0.01 
1 1 1.96357 15.6288 0.01 
6 1 4.17486 14.8473 0.01 
ITEM: TIMESTEP
101214
ITEM: NUMBER OF ATOMS
18
ITEM: BOX BOUNDS pp pp pp
-1.75448 4.54926
0.955875 15.8128
0 2
ITEM: ATOMS id type x y z 
18 2 -0.0786811 1.36384 0.01 
3 1 1.62883 2.93384 0.01 
7 2 3.90272 2.11744 0.01 
2 1 -0.6881 3.69297 0.01 
9 2 1.03944 5.27779 0.01 
8 2 3.32964 4.49241 0.01 
4 1 -1.27966 6.02697 0.01 
11 2 0.389668 7.58034 0.01 
10 2 2.7653 6.91933 0.01 
14 2 -0.596005 9.8518 0.01 
12 2 1.82113 9.23565 0.01 
13 2 3.42479 10.8017 0.01 
5 1 1.08822 11.5026 0.01 
15 2 -1.18188 12.2871 0.01 
16 2 2.79347 13.0983 0.01 
17 2 0.486883 13.8416 0.01 
1 1 4.52457 14.6376 0.01 
6 1 2.18872 15.4164 0.01 
ITEM: TIMESTEP
101346
ITEM: NUMBER OF ATOMS
18
ITEM: BOX BOUNDS pp pp pp
-1.75639 4.55117
1.2975 15.4712
0 2
ITEM: ATOMS id type x y z 
2 1 0.310715 2.52802 0.01 
7 2 4.3482 3.28908 0.01 
1 1 2.65678 1.66889 0.01 
3 1 2.06666 4.01323 0.01 
8 2 -0.23984 4.85934 0.01 
10 2 3.75061 5.68707 0.01 
9 2 1.54164 6.29642 0.01 
4 1 -0.8574 7.20539 0.01 
11 2 1.06808 8.32478 0.01 
14 2 -0.895983 9.66821 0.01 
13 2 3.33275 8.44084 0.01 
12 2 1.31365 10.3343 0.01 
15 2 -0.740848 12.4037 0.01 
16 2 1.55062 12.331 0.01 
5 1 3.5528 11.0396 0.01 
6 1 0.860767 14.4043 0.01 
18 2 -1.37216 15.0523 0.01 
17 2 3.31224 13.5239 0.01 
ITEM: TIMESTEP
101202
ITEM: NUMBER OF ATOMS
18
ITEM: BOX BOUNDS pp pp pp
-0.983769 3.77855
-0.998651 17.7673
0 2
ITEM: ATOMS id type x y z 
7 2 -0.81896 1.11138 0.01 
1 1 0.21166 -0.993586 0.01 
2 1 1.56206 1.11056 0.01 
18 2 2.59396 -0.994259 0.01 
8 2 0.533369 3.21622 0.01 
3 1 2.9127 3.21512 0.01 
9 2 -0.567465 5.27208 0.01 
4 1 1.81552 5.28565 0.01 
10 2 0.741097 7.36789 0.01 
13 2 -0.290056 9.4518 0.01 
11 2 3.12586 7.34289 0.01 
12 2 2.09286 9.4252 0.01 
5 1 1.0206 11.5118 0.01 
14 2 3.39828 11.5164 0.01 
15 2 -0.0582351 13.5897 0.01 
17 2 2.32022 13.5905 0.01 
16 2 1.24524 15.6725 0.01 
6 1 3.62104 15.6619 0.01 
ITEM: TIMESTEP
101244
ITEM: NUMBER OF ATOMS
18
ITEM: BOX BOUNDS pp pp pp
-0.986427 3.78121
-1.00953 17.7782
0 2
ITEM: ATOMS id type x y z 
7 2 -0.00769689 1.06953 0.01 
3 1 2.37686 1.07076 0.01 
1 1 1.27278 -0.993787 0.01 
18 2 3.65482 -0.997399 0.01 
2 1 1.02286 3.1763 0.01 
8 2 3.4079 3.1785 0.01 
4 1 -0.329958 5.2908 0.01 
9 2 2.05629 5.27886 0.01 
10 2 0.747147 7.37401 0.01 
11 2 3.13479 7.3534 0.01 
12 2 1.79002 9.44035 0.01 
13 2 -0.600902 9.45785 0.01 
14 2 0.478919 11.5243 0.01 
5 1 2.86547 11.5287 0.01 
17 2 1.5542 13.5855 0.01 
15 2 -0.831753 13.6248 0.01 
16 2 0.242286 15.6924 0.01 
6 1 2.62609 15.6773 0.01 
ITEM: TIMESTEP
101244
ITEM: NUMBER OF ATOMS
18
ITEM: BOX BOUNDS pp pp pp
-0.988837 3.78362
-1.02381 17.7925
0 2
ITEM: ATOMS id type x y z 
7 2 -0.59105 1.0901 0.01 
17 2 0.765993 -1.01524 0.01 
2 1 1.79584 1.09038 0.01 
8 2 0.516796 3.16013 0.01 
3 1 2.90135 3.15733 0.01 
9 2 -0.842238 5.26158 0.01 
4 1 1.54205 5.2772 0.01 
10 2 0.232106 7.33752 0.01 
12 2 1.26847 9.42562 0.01 
11 2 2.62212 7.36356 0.01 
13 2 3.65856 9.4521 0.01 
14 2 -0.0388176 11.5284 0.01 
5 1 2.34817 11.5118 0.01 
6 1 0.987572 13.6381 0.01 
15 2 3.3775 13.6238 0.01 
16 2 -0.314367 15.7132 0.01 
1 1 3.15777 17.7906 0.01 
18 2 2.07259 15.714 0.01 
ITEM: TIMESTEP
101380
ITEM: NUMBER OF ATOMS
18
ITEM: BOX BOUNDS pp pp pp
-0.681495 3.47628
-2.40118 19.1699
0 2
ITEM: ATOMS id type x y z 
7 2 -0.551658 -0.589844 0.01 
1 1 1.52736 -1.78499 0.01 
2 1 1.52714 0.605028 0.01 
3 1 -0.551808 1.81316 0.01 
8 2 1.5271 2.99436 0.01 
9 2 -0.551638 4.2034 0.01 
4 1 1.52737 5.3962 0.01 
10 2 -0.55136 6.5955 0.01 
11 2 1.52782 7.79339 0.01 
13 2 -0.550783 8.99532 0.01 
12 2 1.52833 10.1964 0.01 
14 2 -0.550407 11.3955 0.01 
5 1 1.52851 12.593 0.01 
15 2 -0.550405 13.7886 0.01 
16 2 -0.550775 16.1875 0.01 
17 2 1.52834 14.9906 0.01 
6 1 -0.55123 18.5783 0.01 
18 2 1.52782 17.3983 0.01 
ITEM: TIMESTEP
101309
ITEM: NUMBER OF ATOMS
18
ITEM: BOX BOUNDS pp pp pp
-0.673022 3.4678
-3.57715 20.3458
0 2
ITEM: ATOMS id type x y z 
1 1 1.29424 -2.0054 0.01 
2 1 3.36477 -3.21389 0.01 
7 2 3.3646 -0.815893 0.01 
3 1 1.29415 0.411072 0.01 
8 2 3.36459 1.59116 0.01 
9 2 3.37635 3.95572 0.01 
4 1 1.30598 5.13535 0.01 
10 2 3.37641 6.35421 0.01 
11 2 1.30597 7.52667 0.01 
12 2 1.29539 9.89381 0.01 
13 2 3.3657 11.0769 0.01 
5 1 1.29523 12.2885 0.01 
14 2 3.36555 13.4838 0.01 
15 2 1.29496 14.6901 0.01 
17 2 3.36519 15.8937 0.01 
16 2 1.29461 17.0996 0.01 
6 1 3.36493 18.2935 0.01 
18 2 1.29443 19.5162 0.01 
ITEM: TIMESTEP
101254
ITEM: NUMBER OF ATOMS
18
ITEM: BOX BOUNDS pp pp pp
-0.999987 3.79477
-1.00728 17.776
0 2
ITEM: ATOMS id type x y z 
2 1 1.28462 1.08235 0.01 
6 1 0.221327 -1.00471 0.01 
3 1 3.67515 1.10168 0.01 
18 2 2.61694 -0.993676 0.01 
8 2 -0.00945471 3.16004 0.01 
7 2 2.37795 3.17684 0.01 
4 1 1.04939 5.26062 0.01 
9 2 3.44523 5.25526 0.01 
10 2 -0.288201 7.3304 0.01 
12 2 0.723598 9.42796 0.01 
11 2 2.11111 7.36062 0.01 
13 2 3.12275 9.45919 0.01 
14 2 -0.60912 11.5343 0.01 
5 1 1.78406 11.5282 0.01 
17 2 0.457858 13.6202 0.01 
15 2 2.85219 13.6187 0.01 
1 1 -0.8732 15.7033 0.01 
16 2 1.51967 15.7154 0.01 
ITEM: TIMESTEP
101687
ITEM: NUMBER OF ATOMS
18
ITEM: BOX BOUNDS pp pp pp
-0.998938 3.79372
-1.05426 17.823
0 2
ITEM: ATOMS id type x y z 
7 2 -0.0456124 1.06523 0.01 
17 2 1.02521 -1.01697 0.01 
2 1 2.35163 1.04435 0.01 
3 1 1.23957 3.133 0.01 
8 2 3.63117 3.13635 0.01 
9 2 0.221679 5.24903 0.01 
4 1 2.62006 5.2692 0.01 
10 2 -0.85239 7.33654 0.01 
12 2 0.506544 9.46427 0.01 
11 2 1.53963 7.36449 0.01 
13 2 2.90694 9.43653 0.01 
14 2 -0.565458 11.5517 0.01 
5 1 1.8299 11.5324 0.01 
6 1 0.718991 13.6201 0.01 
15 2 3.1106 13.6238 0.01 
16 2 -0.297672 15.7358 0.01 
18 2 3.42213 17.8179 0.01 
1 1 2.0988 15.7571 0.01 
ITEM: TIMESTEP
101091
ITEM: NUMBER OF ATOMS
18
ITEM: BOX BOUNDS pp pp pp
-1.00246 3.79724
-2.01583 18.7845
0 2
ITEM: ATOMS id type x y z 
18 2 0.687639 -1.20833 0.01 
7 2 -0.546251 0.856796 0.01 
8 2 0.694392 2.93962 0.01 
2 1 1.86533 0.855611 0.01 
3 1 3.0946 2.96322 0.01 
9 2 -0.508519 5.04365 0.01 
10 2 1.88593 5.04413 0.01 
4 1 0.683518 7.13638 0.01 
11 2 3.08441 7.13115 0.01 
13 2 -0.520178 9.2269 0.01 
12 2 1.88205 9.22002 0.01 
5 1 0.680189 11.3003 0.01 
17 2 -0.498253 13.3739 0.01 
14 2 3.07017 11.3229 0.01 
6 1 0.665736 15.4458 0.01 
15 2 3.05379 15.4303 0.01 
16 2 -0.511827 17.5201 0.01 
1 1 1.89974 17.5392 0.01 
ITEM: TIMESTEP
101429
ITEM: NUMBER OF ATOMS
18
ITEM: BOX BOUNDS pp pp pp
-1.004 3.79878
-1.05743 17.8261
0 2
ITEM: ATOMS id type x y z 
7 2 1.05638 1.07215 0.01 
2 1 3.45849 1.07324 0.01 
8 2 -0.0489731 3.15812 0.01 
3 1 2.34973 3.15654 0.01 
4 1 1.24619 5.25329 0.01 
9 2 3.6456 5.2322 0.01 
10 2 0.178736 7.35499 0.01 
13 2 -0.837166 9.46275 0.01 
11 2 2.58457 7.32513 0.01 
12 2 1.5658 9.43119 0.01 
5 1 0.500537 11.5395 0.01 
14 2 2.89774 11.5461 0.01 
15 2 -0.572286 13.6388 0.01 
16 2 1.82515 13.64 0.01 
18 2 -0.353082 17.821 0.01 
17 2 0.759471 15.7462 0.01 
6 1 2.05059 17.8236 0.01 
1 1 3.15489 15.7299 0.01 
ITEM: TIMESTEP
101214
ITEM: NUMBER OF ATOMS
18
ITEM: BOX BOUNDS pp pp pp
-1.00628 3.80106
-1.09138 17.8601
0 2
ITEM: ATOMS id type x y z 
7 2 0.205826 1.0248 0.01 
18 2 1.32717 -1.06506 0.01 
2 1 2.6097 1.02488 0.01 
1 1 3.72905 -1.06273 0.01 
8 2 -0.915235 3.11543 0.01 
3 1 1.49028 3.1117 0.01 
9 2 0.482173 5.23893 0.01 
4 1 2.88855 5.25744 0.01 
10 2 -0.598641 7.33643 0.01 
12 2 0.769757 9.44515 0.01 
11 2 1.8092 7.35822 0.01 
13 2 3.18041 9.46624 0.01 
5 1 -0.304564 11.5524 0.01 
14 2 2.09614 11.5549 0.01 
16 2 1.01227 13.6532 0.01 
15 2 3.41934 13.6522 0.01 
17 2 -0.0683404 15.7618 0.01 
6 1 2.32958 15.7443 0.01 
ITEM: TIMESTEP
101073
ITEM: NUMBER OF ATOMS
18
ITEM: BOX BOUNDS pp pp pp
-1.00881 3.80359
-1.10284 17.8715
0 2
ITEM: ATOMS id type x y z 
7 2 -0.331482 1.02166 0.01 
3 1 2.07371 1.02113 0.01 
8 2 0.795058 3.11386 0.01 
2 1 3.19925 3.1096 0.01 
9 2 -0.607022 5.23981 0.01 
4 1 1.79652 5.25931 0.01 
11 2 0.475627 7.34023 0.01 
12 2 -0.892854 9.45174 0.01 
10 2 2.87779 7.36205 0.01 
13 2 1.50627 9.47258 0.01 
5 1 0.183432 11.5613 0.01 
14 2 2.59251 11.5636 0.01 
16 2 1.26824 13.6638 0.01 
15 2 3.67772 13.6642 0.01 
18 2 1.07241 17.8567 0.01 
17 2 -0.0562719 15.776 0.01 
1 1 3.47643 17.8601 0.01 
6 1 2.35564 15.7585 0.01 
ITEM: TIMESTEP
101312
ITEM: NUMBER OF ATOMS
18
ITEM: BOX BOUNDS pp pp pp
-0.698333 3.49312
-2.50752 19.2762
0 2
ITEM: ATOMS id type x y z 
7 2 -0.334089 -0.662292 0.01 
1 1 1.76183 -1.90145 0.01 
3 1 1.76146 0.528658 0.01 
2 1 -0.334554 1.75861 0.01 
8 2 1.76106 2.93953 0.01 
9 2 -0.334777 4.16651 0.01 
4 1 1.76095 5.36718 0.01 
10 2 -0.334698 6.57887 0.01 
11 2 1.76125 7.78738 0.01 
12 2 -0.334172 9.00374 0.01 
13 2 1.76187 10.2144 0.01 
5 1 -0.333695 11.4223 0.01 
14 2 1.76216 12.6304 0.01 
17 2 -0.333414 13.8434 0.01 
15 2 1.76236 15.0544 0.01 
6 1 -0.333395 16.2649 0.01 
16 2 1.76224 17.4699 0.01 
18 2 -0.333732 18.6857 0.01 
ITEM: TIMESTEP
101299
ITEM: NUMBER OF ATOMS
18
ITEM: BOX BOUNDS pp pp pp
-1.03151 3.82629
-1.99697 18.7657
0 2
ITEM: ATOMS id type x y z 
18 2 1.34703 -0.724533 0.01 
7 2 3.7736 -0.722604 0.01 
2 1 0.137991 1.36319 0.01 
3 1 2.56372 1.36104 0.01 
8 2 1.35756 3.45065 0.01 
4 1 0.143429 5.52992 0.01 
9 2 3.78316 3.44158 0.01 
11 2 2.58549 5.55339 0.01 
10 2 1.33943 7.60218 0.01 
12 2 0.122459 9.65515 0.01 
13 2 2.57457 9.66598 0.01 
5 1 1.35014 11.7275 0.01 
14 2 3.79253 11.7724 0.01 
16 2 1.32803 15.8775 0.01 
15 2 2.52785 13.8103 0.01 
17 2 3.77279 15.871 0.01 
1 1 0.125208 17.9584 0.01 
6 1 2.55655 17.9482 0.01 
ITEM: TIMESTEP
101202
ITEM: NUMBER OF ATOMS
18
ITEM: BOX BOUNDS pp pp pp
-0.69536 3.49014
-3.64634 20.415
0 2
ITEM: ATOMS id type x y z 
3 1 1.52607 -2.02863 0.01 
18 2 -0.566872 -3.2846 0.01 
7 2 -0.56653 -0.848704 0.01 
8 2 1.52643 0.40188 0.01 
2 1 -0.566168 1.55673 0.01 
9 2 -0.552794 3.92482 0.01 
4 1 1.54007 5.10059 0.01 
10 2 -0.55264 6.34324 0.01 
11 2 1.54007 7.50937 0.01 
12 2 1.52448 9.88362 0.01 
13 2 -0.56832 11.0674 0.01 
5 1 1.5245 12.2972 0.01 
14 2 -0.56819 13.4974 0.01 
15 2 1.52474 14.7229 0.01 
17 2 -0.567797 15.9316 0.01 
16 2 1.52523 17.1683 0.01 
6 1 -0.567365 18.3489 0.01 
1 1 1.52571 19.5847 0.01 
ITEM: TIMESTEP
101427
ITEM: NUMBER OF ATOMS
18
ITEM: BOX BOUNDS pp pp pp
-0.837578 3.63236
-1.82274 18.5914
0 2
ITEM: ATOMS id type x y z 
18 2 1.78492 -1.18754 0.01 
7 2 -0.449878 -0.546856 0.01 
2 1 -0.449135 2.00203 0.01 
3 1 1.78551 0.975958 0.01 
8 2 1.78614 3.27053 0.01 
9 2 -0.448459 4.41438 0.01 
4 1 1.78671 5.64521 0.01 
10 2 -0.448172 6.73768 0.01 
11 2 1.78682 8.06218 0.01 
12 2 -0.448249 9.0429 0.01 
5 1 1.78642 10.5394 0.01 
13 2 -0.448582 11.1585 0.01 
14 2 2.8496 13.0011 0.01 
15 2 0.72209 13.0014 0.01 
16 2 1.78517 15.2233 0.01 
17 2 -0.449828 15.1352 0.01 
1 1 0.602911 17.3309 0.01 
6 1 2.96705 17.331 0.01 
ITEM: TIMESTEP
101388
ITEM: NUMBER OF ATOMS
18
ITEM: BOX BOUNDS pp pp pp
-1.83184 4.62663
1.20701 15.5617
0 2
ITEM: ATOMS id type x y z 
2 1 0.000570744 2.47958 0.01 
18 2 2.30267 3.237 0.01 
7 2 4.20137 1.57387 0.01 
8 2 0.422812 4.83646 0.01 
3 1 4.56719 4.00859 0.01 
10 2 2.72281 5.64284 0.01 
9 2 -1.43671 6.36415 0.01 
4 1 0.867983 7.2335 0.01 
13 2 3.1756 8.07224 0.01 
11 2 -1.10004 8.66177 0.01 
12 2 -0.349188 10.6219 0.01 
14 2 1.49552 9.5884 0.01 
5 1 3.59559 10.6705 0.01 
17 2 -1.20186 12.4296 0.01 
15 2 1.39446 12.3583 0.01 
1 1 -0.322938 14.4437 0.01 
6 1 3.40647 13.6019 0.01 
16 2 1.8267 15.248 0.01 
ITEM: TIMESTEP
101170
ITEM: NUMBER OF ATOMS
18
ITEM: BOX BOUNDS pp pp pp
-0.714837 3.50962
-2.55996 19.3287
0 2
ITEM: ATOMS id type x y z 
7 2 0.355556 -0.702743 0.01 
18 2 2.46767 -1.96499 0.01 
3 1 2.46791 0.464218 0.01 
2 1 0.35602 1.71368 0.01 
8 2 2.46845 2.90024 0.01 
4 1 0.356467 4.15273 0.01 
9 2 2.46891 5.34818 0.01 
10 2 0.357029 6.5754 0.01 
11 2 2.4695 7.79106 0.01 
12 2 0.357388 9.01226 0.01 
5 1 2.4696 10.2219 0.01 
13 2 0.357273 11.4373 0.01 
14 2 2.46921 12.6503 0.01 
15 2 0.356594 13.8786 0.01 
16 2 2.46842 15.0842 0.01 
17 2 0.355797 16.3319 0.01 
6 1 2.46787 17.4992 0.01 
1 1 0.355458 18.7598 0.01 
ITEM: TIMESTEP
101510
ITEM: NUMBER OF ATOMS
18
ITEM: BOX BOUNDS pp pp pp
-0.692657 3.48744
-3.74873 20.5174
0 2
ITEM: ATOMS id type x y z 
1 1 0.373197 -3.65937 0.01 
7 2 0.359936 -1.28909 0.01 
3 1 2.44984 -0.0991737 0.01 
8 2 0.359753 1.15785 0.01 
2 1 2.44976 2.38163 0.01 
9 2 0.359696 3.62617 0.01 
4 1 2.44975 4.85981 0.01 
10 2 0.359698 6.08961 0.01 
11 2 2.44986 7.28359 0.01 
12 2 2.46334 9.65959 0.01 
5 1 0.373379 10.8608 0.01 
13 2 2.46344 12.0936 0.01 
14 2 0.37344 13.2989 0.01 
15 2 2.46351 14.5428 0.01 
16 2 0.373449 15.7529 0.01 
6 1 2.46347 16.9883 0.01 
17 2 0.373376 18.1895 0.01 
18 2 2.46337 19.4412 0.01 
ITEM: TIMESTEP
101200
ITEM: NUMBER OF ATOMS
18
ITEM: BOX BOUNDS pp pp pp
-1.02784 3.82263
-1.20464 17.9733
0 2
ITEM: ATOMS id type x y z 
3 1 0.318434 0.973189 0.01 
18 2 1.30929 -1.19168 0.01 
7 2 2.7426 0.974104 0.01 
1 1 3.73206 -1.18701 0.01 
2 1 -0.834143 3.08755 0.01 
8 2 1.59388 3.09002 0.01 
9 2 0.442369 5.19235 0.01 
4 1 2.87021 5.21802 0.01 
10 2 -0.646294 7.31676 0.01 
11 2 1.78261 7.33774 0.01 
12 2 0.732024 9.45027 0.01 
13 2 3.16462 9.47055 0.01 
5 1 -0.354897 11.5784 0.01 
14 2 2.06732 11.582 0.01 
15 2 0.970272 13.7028 0.01 
16 2 3.40055 13.7009 0.01 
17 2 -0.122526 15.8378 0.01 
6 1 2.29707 15.8124 0.01 
ITEM: TIMESTEP
101325
ITEM: NUMBER OF ATOMS
18
ITEM: BOX BOUNDS pp pp pp
-1.03008 3.82486
-1.24499 18.0137
0 2
ITEM: ATOMS id type x y z 
7 2 -0.344035 0.905331 0.01 
3 1 2.08326 0.905718 0.01 
8 2 1.04915 3.06673 0.01 
2 1 3.47919 3.06145 0.01 
4 1 0.0222039 5.23662 0.01 
9 2 2.44767 5.20957 0.01 
11 2 1.32456 7.33702 0.01 
10 2 3.75385 7.35431 0.01 
12 2 0.242153 9.48627 0.01 
13 2 2.66345 9.47124 0.01 
14 2 -0.884165 11.6012 0.01 
5 1 1.54556 11.598 0.01 
15 2 0.421818 13.7217 0.01 
16 2 2.84424 13.7232 0.01 
1 1 0.687912 18.0076 0.01 
6 1 -0.710404 15.834 0.01 
18 2 3.11784 18.0038 0.01 
17 2 1.72147 15.8599 0.01 
ITEM: TIMESTEP
101490
ITEM: NUMBER OF ATOMS
18
ITEM: BOX BOUNDS pp pp pp
-0.707379 3.50216
-3.73168 20.5004
0 2
ITEM: ATOMS id type x y z 
1 1 0.342981 -3.62855 0.01 
3 1 0.381683 -1.24771 0.01 
7 2 2.48672 -0.0961523 0.01 
8 2 0.382049 1.16967 0.01 
2 1 2.48691 2.35594 0.01 
9 2 0.382203 3.62124 0.01 
4 1 2.48698 4.84987 0.01 
10 2 0.382259 6.08533 0.01 
11 2 2.48675 7.27583 0.01 
13 2 2.44733 9.65599 0.01 
12 2 0.342266 10.8425 0.01 
5 1 2.44706 12.087 0.01 
14 2 0.342264 13.2954 0.01 
15 2 2.44705 14.5357 0.01 
16 2 0.342366 15.7507 0.01 
6 1 2.44723 16.9896 0.01 
17 2 0.342578 18.1875 0.01 
18 2 2.44748 19.4486 0.01 
ITEM: TIMESTEP
101183
ITEM: NUMBER OF ATOMS
18
ITEM: BOX BOUNDS pp pp pp
-1.03511 3.82989
-1.24084 18.0095
0 2
ITEM: ATOMS id type x y z 
3 1 -0.618646 0.910689 0.01 
7 2 1.81369 0.91025 0.01 
8 2 0.362446 3.08521 0.01 
2 1 2.79839 3.08094 0.01 
4 1 -0.906829 5.22009 0.01 
9 2 1.53134 5.19292 0.01 
11 2 0.195131 7.3387 0.01 
10 2 2.62241 7.33757 0.01 
5 1 1.29418 9.46896 0.01 
12 2 3.72381 9.46526 0.01 
14 2 -0.039186 11.5842 0.01 
13 2 2.38575 11.6039 0.01 
15 2 1.00476 13.7458 0.01 
16 2 3.44055 13.7248 0.01 
1 1 0.828869 17.9897 0.01 
6 1 -0.332595 15.8504 0.01 
18 2 3.26499 17.9868 0.01 
17 2 2.0973 15.8791 0.01 
ITEM: TIMESTEP
101416
ITEM: NUMBER OF ATOMS
18
ITEM: BOX BOUNDS pp pp pp
-1.03736 3.83214
-1.26825 18.0369
0 2
ITEM: ATOMS id type x y z 
3 1 0.553791 0.905936 0.01 
1 1 -0.878245 -1.25751 0.01 
7 2 2.98649 0.910962 0.01 
18 2 1.56035 -1.26717 0.01 
2 1 -0.632767 3.03268 0.01 
8 2 1.79805 3.03888 0.01 
4 1 0.80127 5.22222 0.01 
9 2 3.23139 5.19217 0.01 
10 2 -0.324511 7.34138 0.01 
11 2 2.11713 7.33835 0.01 
12 2 0.998214 9.46616 0.01 
5 1 3.42894 9.47422 0.01 
13 2 -0.115497 11.5851 0.01 
14 2 2.31825 11.6122 0.01 
16 2 1.24302 13.7542 0.01 
15 2 3.68385 13.728 0.01 
17 2 0.131671 15.8886 0.01 
6 1 2.56529 15.854 0.01 
ITEM: TIMESTEP
101326
ITEM: NUMBER OF ATOMS
18
ITEM: BOX BOUNDS pp pp pp
-0.730691 3.52547
-2.63024 19.3989
0 2
ITEM: ATOMS id type x y z 
1 1 0.585029 -2.02915 0.01 
2 1 2.71311 -0.754226 0.01 
7 2 0.585027 0.417493 0.01 
8 2 2.7131 1.67536 0.01 
3 1 0.585012 2.88245 0.01 
9 2 2.7131 4.11253 0.01 
10 2 0.585026 5.33353 0.01 
4 1 2.71312 6.55932 0.01 
11 2 0.58505 7.78072 0.01 
12 2 2.71315 9.00783 0.01 
5 1 0.585074 10.2292 0.01 
13 2 2.71315 11.4519 0.01 
14 2 0.585051 12.6776 0.01 
15 2 2.71311 13.9129 0.01 
16 2 0.585012 15.1347 0.01 
6 1 2.71309 16.364 0.01 
17 2 0.585011 17.5701 0.01 
18 2 2.71311 18.8285 0.01 
ITEM: TIMESTEP
101800
ITEM: NUMBER OF ATOMS
18
ITEM: BOX BOUNDS pp pp pp
-0.718548 3.51333
-3.74272 20.5114
0 2
ITEM: ATOMS id type x y z 
1 1 0.119089 -3.62593 0.01 
7 2 0.120521 -1.24826 0.01 
2 1 2.23644 -0.114896 0.01 
3 1 0.120366 1.18786 0.01 
8 2 2.23623 2.33739 0.01 
9 2 0.120094 3.62816 0.01 
10 2 2.23588 4.82144 0.01 
4 1 0.119872 6.0762 0.01 
11 2 2.23577 7.2651 0.01 
12 2 2.23465 9.64341 0.01 
5 1 0.11871 10.8389 0.01 
13 2 2.23467 12.0821 0.01 
14 2 0.118784 13.2906 0.01 
15 2 2.2348 14.5463 0.01 
16 2 0.11893 15.7609 0.01 
6 1 2.23491 17.007 0.01 
17 2 0.11901 18.2033 0.01 
18 2 2.235 19.4789 0.01 
ITEM: TIMESTEP
101299
ITEM: NUMBER OF ATOMS
18
ITEM: BOX BOUNDS pp pp pp
-1.04738 3.84217
-2.1721 18.9408
0 2
ITEM: ATOMS id type x y z 
1 1 -0.2887 -1.5969 0.01 
7 2 0.893735 0.496637 0.01 
3 1 -0.249726 2.65096 0.01 
2 1 3.32324 0.488005 0.01 
8 2 2.194 2.62815 0.01 
10 2 0.966493 4.7827 0.01 
9 2 3.40186 4.76463 0.01 
4 1 -0.271227 6.87716 0.01 
11 2 2.19405 6.93545 0.01 
12 2 0.880643 8.98871 0.01 
5 1 -0.288492 11.0936 0.01 
14 2 0.94038 13.1932 0.01 
13 2 2.17712 11.047 0.01 
15 2 3.38622 13.2114 0.01 
6 1 -0.277942 15.3425 0.01 
16 2 2.16296 15.3236 0.01 
17 2 0.955862 17.4629 0.01 
18 2 3.36748 17.4553 0.01 
ITEM: TIMESTEP
101434
ITEM: NUMBER OF ATOMS
18
ITEM: BOX BOUNDS pp pp pp
-0.737973 3.53276
-2.66442 19.4331
0 2
ITEM: ATOMS id type x y z 
3 1 -0.604166 -0.779969 0.01 
1 1 1.53123 -2.06383 0.01 
7 2 1.53119 0.3904 0.01 
8 2 -0.60416 1.65563 0.01 
2 1 1.53122 2.86461 0.01 
9 2 -0.604122 4.09933 0.01 
10 2 1.53129 5.32361 0.01 
4 1 -0.604043 6.55353 0.01 
11 2 1.53135 7.77841 0.01 
12 2 -0.603972 9.00967 0.01 
5 1 1.53141 10.2345 0.01 
14 2 -0.603949 11.461 0.01 
13 2 1.53141 12.6905 0.01 
15 2 -0.603982 13.9309 0.01 
16 2 1.53135 15.156 0.01 
6 1 -0.604043 16.3898 0.01 
17 2 1.5313 17.5978 0.01 
18 2 -0.604117 18.8636 0.01 
ITEM: TIMESTEP
101228
ITEM: NUMBER OF ATOMS
18
ITEM: BOX BOUNDS pp pp pp
-1.85884 4.65362
0.785201 15.9835
0 2
ITEM: ATOMS id type x y z 
7 2 -0.785897 1.99228 0.01 
3 1 1.56093 2.77602 0.01 
18 2 3.34159 1.18302 0.01 
8 2 -0.145367 4.43666 0.01 
2 1 3.98123 3.60321 0.01 
4 1 2.1908 5.26469 0.01 
9 2 0.443843 6.93029 0.01 
10 2 4.60323 5.96773 0.01 
11 2 2.96356 7.59267 0.01 
13 2 -0.369979 10.7522 0.01 
12 2 1.38806 9.23999 0.01 
5 1 3.82661 9.9113 0.01 
15 2 0.337444 13.1398 0.01 
16 2 4.44309 12.376 0.01 
14 2 2.09082 11.5692 0.01 
17 2 0.935664 15.5907 0.01 
1 1 -1.39422 14.7788 0.01 
6 1 2.67354 13.9768 0.01 
ITEM: TIMESTEP
101470
ITEM: NUMBER OF ATOMS
18
ITEM: BOX BOUNDS pp pp pp
-0.750516 3.5453
-2.67234 19.441
0 2
ITEM: ATOMS id type x y z 
18 2 0.0996006 -2.08288 0.01 
7 2 2.24722 -0.773467 0.01 
3 1 0.0992584 0.371483 0.01 
2 1 2.24724 1.67551 0.01 
8 2 0.0994507 2.8322 0.01 
9 2 2.2477 4.10934 0.01 
4 1 0.0999819 5.31112 0.01 
11 2 2.24809 6.54702 0.01 
10 2 0.10047 7.77211 0.01 
12 2 2.24861 9.01388 0.01 
13 2 0.100866 10.2435 0.01 
5 1 2.24883 11.4718 0.01 
14 2 0.100925 12.6875 0.01 
15 2 2.24876 13.9342 0.01 
16 2 0.100693 15.1457 0.01 
17 2 2.24831 16.4295 0.01 
6 1 0.100217 17.5816 0.01 
1 1 2.24769 18.8855 0.01 
ITEM: TIMESTEP
101270
ITEM: NUMBER OF ATOMS
18
ITEM: BOX BOUNDS pp pp pp
-0.735405 3.53019
-2.75871 19.5274
0 2
ITEM: ATOMS id type x y z 
18 2 0.346245 -2.15396 0.01 
2 1 2.47923 -0.865368 0.01 
7 2 0.346547 0.346491 0.01 
8 2 2.47944 1.59027 0.01 
3 1 0.34666 2.81955 0.01 
9 2 2.47944 4.05441 0.01 
10 2 0.3466 5.29054 0.01 
4 1 2.47939 6.51282 0.01 
11 2 0.346592 7.77443 0.01 
5 1 2.47938 9.03705 0.01 
12 2 0.34652 10.2541 0.01 
13 2 2.47908 11.4983 0.01 
15 2 0.345947 12.7322 0.01 
14 2 2.47841 13.9847 0.01 
16 2 0.345459 15.2085 0.01 
17 2 2.47832 16.4819 0.01 
6 1 0.345659 17.6599 0.01 
1 1 2.47884 18.9318 0.01 
ITEM: TIMESTEP
101487
ITEM: NUMBER OF ATOMS
18
ITEM: BOX BOUNDS pp pp pp
-0.722107 3.51689
-3.85439 20.6231
0 2
ITEM: ATOMS id type x y z 
2 1 0.24372 -2.62497 0.01 
18 2 2.3634 -1.47161 0.01 
7 2 0.24402 -0.187964 0.01 
3 1 2.36361 1.0229 0.01 
9 2 0.244182 2.27551 0.01 
8 2 2.36374 3.5108 0.01 
4 1 0.244243 4.74232 0.01 
10 2 2.36375 6.00532 0.01 
11 2 0.244049 7.19855 0.01 
12 2 0.22621 9.58327 0.01 
5 1 2.34554 10.7905 0.01 
14 2 0.226012 12.0421 0.01 
13 2 2.34544 13.265 0.01 
16 2 0.225916 14.5202 0.01 
15 2 2.34545 15.7742 0.01 
6 1 0.226 16.982 0.01 
17 2 2.34555 18.2849 0.01 
1 1 0.226236 19.4679 0.01 
ITEM: TIMESTEP
101430
ITEM: NUMBER OF ATOMS
18
ITEM: BOX BOUNDS pp pp pp
-0.732991 3.52777
-2.81096 19.5797
0 2
ITEM: ATOMS id type x y z 
18 2 2.24107 -2.16214 0.01 
3 1 0.110658 -0.889375 0.01 
7 2 2.24102 0.335281 0.01 
8 2 0.110625 1.57713 0.01 
2 1 2.24101 2.81404 0.01 
10 2 0.110641 4.0561 0.01 
9 2 2.24106 5.29107 0.01 
4 1 0.110708 6.53133 0.01 
11 2 2.24112 7.77002 0.01 
12 2 0.110795 9.0129 0.01 
13 2 2.24122 10.2571 0.01 
5 1 0.110857 11.494 0.01 
15 2 2.24124 12.734 0.01 
14 2 0.110844 13.9741 0.01 
16 2 2.24119 15.2242 0.01 
6 1 0.110782 16.4466 0.01 
17 2 2.24113 17.7186 0.01 
1 1 0.110716 18.9737 0.01 
ITEM: TIMESTEP
101150
ITEM: NUMBER OF ATOMS
18
ITEM: BOX BOUNDS pp pp pp
-0.75254 3.54732
-2.73201 19.5007
0 2
ITEM: ATOMS id type x y z 
18 2 -0.379304 -2.08603 0.01 
3 1 1.77039 -0.873836 0.01 
7 2 -0.379724 0.370133 0.01 
8 2 1.77006 1.60074 0.01 
2 1 -0.379869 2.83867 0.01 
9 2 1.77017 4.07058 0.01 
10 2 -0.379449 5.30936 0.01 
4 1 1.77072 6.54212 0.01 
11 2 -0.378941 7.77725 0.01 
12 2 1.77146 9.01288 0.01 
5 1 -0.378221 10.2491 0.01 
14 2 1.77191 11.4744 0.01 
13 2 -0.377794 12.7253 0.01 
15 2 1.77221 13.9477 0.01 
16 2 -0.377845 15.2356 0.01 
6 1 1.77193 16.3973 0.01 
1 1 -0.378481 17.6994 0.01 
17 2 1.77118 18.8664 0.01 
ITEM: TIMESTEP
101438
ITEM: NUMBER OF ATOMS
18
ITEM: BOX BOUNDS pp pp pp
-0.760499 3.55528
-2.7395 19.5082
0 2
ITEM: ATOMS id type x y z 
18 2 0.573712 -2.10784 0.01 
7 2 2.73154 -0.838217 0.01 
3 1 0.573627 0.335987 0.01 
2 1 2.73151 1.63027 0.01 
8 2 0.573624 2.79688 0.01 
9 2 2.73154 4.08389 0.01 
10 2 0.573658 5.30582 0.01 
4 1 2.73154 6.55072 0.01 
11 2 0.573621 7.77637 0.01 
12 2 2.73146 9.01876 0.01 
5 1 0.573544 10.2504 0.01 
13 2 2.73143 11.4763 0.01 
14 2 0.573587 12.7267 0.01 
15 2 2.73155 13.9494 0.01 
16 2 0.573743 15.2363 0.01 
6 1 2.73166 16.3999 0.01 
1 1 0.573787 17.6962 0.01 